4
 energy: -14.141935266721 gnorm: 0.000014490501 xtb: 6.7.1 (edcfbbe)
O            1.14627993386482        0.01006809470808       -0.01483130544305
C            2.32855972042681        0.39534148903961       -0.16931194161301
O            2.92110625522352        0.18041810893393       -1.25226491464583
O            2.91832409048485        0.99544230731837        0.75920816170189
