12
 energy: -21.724620636922 gnorm: 0.000016444330 xtb: 6.7.1 (edcfbbe)
C            1.63458435769517        2.45238142469830       -2.48418402687932
N            1.74660763174063        2.76099624360041       -3.69156898452455
H            0.79852134738868        1.80743748630952       -2.19386611694746
C            2.30376966784195        2.50051466592901       -0.29436032635891
N            2.49945304879831        2.87248799856225       -1.48258053090043
H            1.46568567861337        1.84121397240861        0.01861353868457
O            3.12089846192902        2.89327237994496        0.67580115663549
H            3.45697022210725        2.52601620254522        3.77383443961588
H            2.54538736576286        3.36179856977519       -3.88761966621331
C            2.89384920651086        2.48347970728201        1.93696010210852
N            3.66789862318578        2.85984087550781        2.84135171742638
H            2.00693438842616        1.82840047343671        2.04174869735318
