15
 energy: -26.802235111315 gnorm: 0.000015555826 xtb: 6.7.1 (edcfbbe)
C            1.09070506552600        0.03144050453586        0.33588608969694
N            0.57642816368293       -0.46355078963191        1.38037385848313
H            0.54394041946416        0.48786603520400       -0.49275423268573
O            2.21912381761666        0.95937282411968       -1.87287180774826
H           -0.43581329353643       -0.41002394164383        1.42461631291939
H            2.33768506078118        0.46113734512617        2.70824863331064
C            3.08711846012387        0.47298051692949       -0.95949150276403
N            2.45393668686327        0.02359939728450        0.14162620015543
H            2.72514961404473        1.26540363838388       -2.63662562448256
O            2.93950471948176       -1.79656581575866        1.55194195965937
H            3.92776912654727        0.17363617778749        3.02147718854558
H            2.00652307377465       -1.76291408928201        1.83306531053988
C            3.30437699268458       -0.50051556989410        1.21757539154797
N            3.26843655857739        0.44276605807156        2.30221759268073
H            4.32383553436793       -0.54502229123212        0.81714463014160
