9
 energy: -16.195984290239 gnorm: 0.000024668531 xtb: 6.7.1 (edcfbbe)
C            0.99661068150782       -0.45731369128876        0.27528991686863
N            0.44673153328312       -0.79746560619331       -0.82124311810921
H            0.46991005691920        0.00011482732480        1.11821152053472
O            2.75414691756230       -1.57135735517611       -1.54143229423494
H           -0.54908982886231       -0.62218054890432       -0.89395356058489
H            1.76080609355095       -1.40496385417594       -1.63463167854314
C            3.08845735461266       -1.14947337421832       -0.35467584383600
N            2.33242798882271       -0.62496233328326        0.53613388946843
H            4.14093920260358       -1.26570806408475       -0.11064883156358
