15
 energy: -26.869831513021 gnorm: 0.000030035236 xtb: 6.7.1 (edcfbbe)
O            0.69891071327378       -1.61770033970808       -2.19234632784694
H            2.32833241015641        0.16959595334777       -5.47446619699336
H            1.34270476517908       -1.85942315149602       -1.50841185906730
C            1.18906033713332       -0.66425683475475       -2.96985511062300
N            2.33736217109404       -0.17993224517906       -2.78538157862748
H            0.49330303258286       -0.36255511636676       -3.75135240808250
C            2.87063001359714        0.85191648680046       -3.65209203886536
N            2.12602373695008        0.97352644795865       -4.88656996724678
H            2.76315621187057        1.80566456086742       -3.10684141375266
O            4.81304779603746       -0.67755135222511       -2.10742252800621
H            2.45182333426607        1.79379679627411       -5.38350561368431
H            3.83784074240366       -0.62357840902673       -1.95619630516618
C            5.06262014515053        0.01368646651457       -3.21359896843460
N            4.27803634961965        0.68444925784310       -3.92901293589647
H            6.10548824068551       -0.02611852085057       -3.51168674770692
