15
 energy: -26.842410475813 gnorm: 0.000016098638 xtb: 6.7.1 (edcfbbe)
C            5.28344051434135        1.82964317167698       -1.90898738903837
N            5.97705551562077        2.00054461456086       -2.94670885925979
H            5.65114869426523        1.64004576733254       -0.89186145571280
O            3.04246603774214        3.31972480266770       -0.40812580010243
H            6.97897776651551        1.94295226649492       -2.80316341904054
H            3.87473809675834        3.52612416154829        0.03842603729638
C            3.07118278154832        2.01869973231881       -0.84946896226856
N            3.91877530361854        1.80401672213093       -1.99533069862828
H            2.03915682850010        1.76921721517666       -1.14576831573168
O            3.50764039288228        1.20917603741424        0.21330659441712
H            3.57461653266450       -1.85180094335744        0.87284584836601
H            3.55820782926583        2.09085105280685       -2.89398075149864
C            3.28680206272545       -0.11129753992100        0.12700219616375
N            3.79648010458147       -0.86924770260336        0.98027874786566
H            2.64777153897009       -0.40205935824693       -0.72576377282785
