8
 energy: -16.854039761377 gnorm: 0.000016983923 xtb: 6.7.1 (edcfbbe)
O            0.97634661109334        0.01962769728814        0.06763317930295
H            2.44456411349467        1.55976129656436        1.38776463796707
C            2.17133941589150        0.02085659697598        0.06748796171555
N            2.93731496811458        0.88454735586294        0.80783097918656
H            2.78876134404803       -0.67315633698849       -0.52862549979943
O            4.94318703994836        1.68750099082863        1.49567386272628
C            4.30797837496793        0.91923302019821        0.83668098652606
H            4.75541813244160        0.15377937927022        0.17934389237495
