15
 energy: -26.866518235231 gnorm: 0.000044573462 xtb: 6.7.1 (edcfbbe)
O            3.54870681741404        0.25302254060835       -1.18629588599631
H            3.32088090324887       -0.79442831713775        1.82844969504413
H            4.42378256669433       -1.19290905406874        0.67027712815964
C            2.85786347084139       -0.10844204419706       -0.04053257057884
N            3.79602804449040       -0.46754102749797        0.99645030919930
H            2.17335144879276       -0.91446478691594       -0.36228410199651
C            0.76631664521243        1.19342181010913        0.18113186020350
N            2.05236132006995        0.97001845477781        0.48109258926071
H            0.30318864215275        0.42657881048866       -0.44717567270208
O           -1.46445289448017        2.91286801661482       -0.76872981864522
H            2.53560465411175        1.68338739694803        1.01008471036995
H            4.22669031668308        0.90160189382634       -0.95451339394926
C           -1.09009472211124        2.65006773387356        0.34681846246493
N            0.12389957591795        2.16368720274098        0.69301025773720
H           -1.68138678903837        2.90669136982971        1.24742643142887
