15
 energy: -26.818317936106 gnorm: 0.000014490681 xtb: 6.7.1 (edcfbbe)
O            1.89824938662465        0.19787142841197        0.16839178537218
H            3.34716050067240        1.87983594441632        2.38827604801433
H            5.04642585090785       -0.13346176308387        2.76051043327071
C            1.95192016672408        1.03090758358274        1.24392587116935
N            3.20117708747151        1.24491503921876        1.61677880793447
H            0.97099623169259        0.06230228275647       -0.06018519494955
C            4.42640900598304        0.72551221737807        1.01949589980202
N            5.38253523619508        0.54469882311414        2.08688465167712
H            4.15283571659367       -0.18898146684799        0.46382320139127
O            5.21425991661764        2.45626233527134       -2.02534389498798
H            6.27345023237006        0.22767022765570        1.72306542787673
H            5.40521251249043        2.48938252287521        0.46453241110574
C            4.82215371696583        1.61210182155940       -1.26343724763209
N            4.98015852854144        1.65798916084309        0.07431602002837
H            4.30266591014970        0.69353384284862       -1.59066422007260
