14
 energy: -27.506493995287 gnorm: 0.000046915416 xtb: 6.7.1 (edcfbbe)
O            1.70450820453295       -0.49454287289324        0.96227100279591
O            2.41844302753086        0.80078585334775       -0.72557353486760
H            3.15897886098876        1.01815917639492       -1.30125327452448
C            2.67941140776613       -0.34421377673336        0.01002660321773
H            3.63672724632346       -0.28925666345472        0.55257499061869
C            1.88044187358440       -1.71014518007551       -1.87396048550726
N            2.76799400408657       -1.49806811692653       -0.88203524056612
H            1.26523823005128       -0.84001883457945       -2.12300941357637
O           -0.22867107850143       -3.29676621961320       -3.26024853527795
H            3.25859124810135       -2.31240714697925       -0.54237804304361
H            0.84201396361731       -0.30260458439143        0.56885708473765
C            0.96202183366204       -3.23150668089290       -3.43730022360779
N            1.87701898063219       -2.78596998091325       -2.54608480212934
H            1.45632219762409       -3.66377497229004       -4.32849612826939
