8
 energy: -16.824327445245 gnorm: 0.000043693323 xtb: 6.7.1 (edcfbbe)
O            1.99416774244448        0.61793703236009        1.17645950505740
C            1.44375474424984       -0.38182326405288        0.83594390539614
H            0.52174723428164       -0.78137037628082        1.28575606487146
O            1.82203367640951       -1.21145130547085       -0.14370409124015
H            4.12954447591007       -1.45873854015234       -2.26778098766649
C            2.94945024565227       -0.92425212001940       -0.85491842796868
N            3.28605147029121       -1.70939709906776       -1.76436428102628
H            3.44677041076097        0.00023567268394       -0.53006168742340
