13
 energy: -20.649416480448 gnorm: 0.000028447896 xtb: 6.7.1 (edcfbbe)
O            1.39257169461111       -0.73745968789286       -2.69374629236484
H            5.42872802235314       -0.93615944540524       -3.07301825189072
H            1.13647559428093        0.09718193252696       -2.27077928873989
C            2.64710938344159       -1.01219551486052       -2.35463984621202
N            3.30044139802886       -0.23557882523288       -1.61444908429025
H            2.99620363555970       -1.95172313476131       -2.78789644374400
N            5.28135478031254        0.77453708051953       -1.00106448638762
H            6.23767574486079       -1.65816493306604       -1.83504606029711
H            6.25677239106662        0.66432286683952       -0.75041715382986
H            5.21268830895137        1.35767536429717       -1.82722417668937
C            4.65023319709087       -0.50979811055605       -1.22819431332534
N            5.31978272893986       -1.39660177462081       -2.17426526296567
H            4.63132312050273       -1.03266581778752       -0.25950933926323
