18
 energy: -31.965410708588 gnorm: 0.000016959302 xtb: 6.7.1 (edcfbbe)
O            2.36703224636462       -2.92533971838815       -4.06998368747858
H            2.82301154610413        1.14815591736479       -2.11920665349619
H            2.38498628330725       -3.19821128885885       -3.14791868955955
O            1.97507594345901       -1.22897893713912       -5.48232450119567
H            3.50774468840416        0.01750624109182       -4.17092763675747
H            2.52407054702943       -1.80582705718661       -6.02973493339272
C            2.21782664662967       -1.54234599433577       -4.16860216711790
N            3.45229386129918       -0.89392392501272       -3.72276310296655
H            1.35378644210106       -1.18350208426705       -3.58139407411850
C            3.57320079231459       -0.72603080173252       -2.27660304702296
N            2.59170582767327        0.21672075513956       -1.78629460312799
H            3.34637301265354       -1.69959838512493       -1.80893780897178
O            6.06283127806350       -1.43234713210130       -3.58209632363967
H            2.62610078943281        0.24543486282131       -0.77428980882797
H            5.16018418595840       -1.61034495573098       -3.93469575289976
C            5.94042602152859       -0.70462340580733       -2.47955403820906
N            4.90331221030534       -0.34651846947936       -1.86605623535351
H            6.89706767737190       -0.39507562125316       -2.07141693586451
