10
 energy: -15.553115114562 gnorm: 0.000039102016 xtb: 6.7.1 (edcfbbe)
C           -0.56254520639054       -1.40768531619604        1.30176391841502
N           -0.73969524467022       -1.18224932532747        0.07408518263785
H           -1.34211955163503       -1.55642493370381        2.06345536202436
N            0.69983728065829       -1.48762448419781        1.80182826857680
H            2.41069313157113       -1.95396028928101        4.42337564354106
H           -1.70751175184120       -1.13692792515240       -0.22272757142693
H            1.46288003222902       -1.35895083050829        1.14812491103210
C            1.03113261154757       -1.72385770741958        3.09971087525196
N            2.24395329992794       -1.77415283597980        3.44016418568320
H            0.15706539860305       -1.85386635223380        3.75479922426458
