18
 energy: -31.943128424357 gnorm: 0.000017808397 xtb: 6.7.1 (edcfbbe)
O            5.87135413836270        4.65309451838143       -3.36780905059034
H            8.51822398396455        1.01082281691520       -1.36135661150758
H            6.63551594132446        5.13878973061680       -3.03141684934322
O            5.44573324826307        3.53294540137848       -1.40350911619138
H            7.73493465781263        3.12698963821995       -2.18454100733614
H            4.61248427164017        4.01293791044074       -1.33815831223294
C            5.81041471900201        3.41533308773699       -2.75957912731165
N            7.06586487826604        2.73305649426127       -2.83650522645592
H            5.06376551522205        2.83792354601666       -3.32379926297148
C            6.99881518268754        1.29676110611822       -2.68813757610296
N            8.31420217458278        0.81927819689907       -2.33454906314433
H            6.20625021265532        0.99772101565409       -1.96736528605412
O            6.57912309165635        0.70363050339814       -3.88966066829049
H            7.59304072077383        0.71572418726661       -6.85279593820193
H            8.36705995385731       -0.18143252026173       -2.48560781198449
C            7.30449785010978        0.99051144291277       -4.98424656600787
N            7.00617398020990        0.44353861808661       -6.07190879048840
H            8.11656547960977        1.70701430595867       -4.79982373578495
