15
 energy: -26.397405018789 gnorm: 0.000037460959 xtb: 6.7.1 (edcfbbe)
O            2.86247049256573       -0.36359023332703        1.04836577556161
H            0.65868921551699        0.48348999479880       -0.12865555216212
H            2.33092112689983        0.24989095464467        1.57298875084399
O            4.63140314341337        2.56885405490513       -0.90086480654328
H            4.47609540667025        0.82564099336501       -2.84359268205476
H            3.99044834448381        2.98264736341473       -1.49281980589000
C            4.36348035826251        1.20580189354690       -0.85222323647720
N            4.85741865921323        0.45878246497916       -1.97752072584998
H            4.85030172429649        0.82006156309978        0.05452911723925
O            2.97310103717651        1.05015200712582       -0.77504207543692
H            0.92263780624751       -0.40857888404695       -1.48191872806273
H            5.86695179268360        0.50590785404870       -2.01944900116408
C            2.53889670642575       -0.21920454656465       -0.28193369831585
N            1.13353058434207       -0.33538775584796       -0.49567373399308
H            3.07085360180228       -1.01667772414191       -0.81600959769462
