14
 energy: -27.490230329239 gnorm: 0.000046366072 xtb: 6.7.1 (edcfbbe)
O            1.40165910900951        0.57383544299824        0.67308055403701
H            3.10569933412265        2.20084194545767        0.16027070128691
H           -1.40125387722096       -0.80348381689940        0.92034843032343
C            0.41605251877015       -0.33678591289776        0.54808181694522
N           -0.69493265047794       -0.09156235400320        1.06413871295609
H            0.70235162405268       -1.23369143607680       -0.02603524789988
O            2.68061078127792       -2.21254648272217        1.44443780005710
C            3.35401918740673       -1.33768953001277        1.89748737127264
H            4.00046752282682       -1.43982842893862        2.78481934223686
O            3.47260780402186       -0.10652274660378        1.42631753559630
H            4.22469494461589        1.23244990948978       -0.58590581206038
C            2.67574353805469        0.25036469021063        0.24973176430169
N            3.23979397549929        1.36650731225348       -0.39877900734439
H            2.67743618804068       -0.63186859225522       -0.41559396170871
