9
 energy: -16.206692625734 gnorm: 0.000034640099 xtb: 6.7.1 (edcfbbe)
O            2.57401512806344        0.01331747414250       -1.07204340119020
C            2.23721186664708        0.14767916683231        0.08923735933099
H            1.20541648387727        0.42830469339724        0.35636615506595
N            4.92240711898190       -0.55656455709240       -0.01653695876170
H            5.89498722293653       -0.81016540171671       -0.02749714522481
H            4.39069968250008       -0.45182344153213       -0.88093710977171
C            4.24814165749131       -0.33709971265238        1.10562054817728
N            3.00166283762706       -0.00798654178591        1.20774921564219
H            4.79397800187535       -0.44302167959259        2.03987133673219
