      -----------------------------------------------------------      
     |                   =====================                   |     
     |                           x T B                           |     
     |                   =====================                   |     
     |                         S. Grimme                         |     
     |          Mulliken Center for Theoretical Chemistry        |     
     |                    University of Bonn                     |     
      -----------------------------------------------------------      

   * xtb version 6.7.1 (edcfbbe) compiled by 'albert@albert-system' on 2024-07-22

   xtb is free software: you can redistribute it and/or modify it under
   the terms of the GNU Lesser General Public License as published by
   the Free Software Foundation, either version 3 of the License, or
   (at your option) any later version.
   
   xtb is distributed in the hope that it will be useful,
   but WITHOUT ANY WARRANTY; without even the implied warranty of
   MERCHANTABILITY or FITNESS FOR A PARTICULAR PURPOSE.  See the
   GNU Lesser General Public License for more details.
   
   Cite this work as:
   * C. Bannwarth, E. Caldeweyher, S. Ehlert, A. Hansen, P. Pracht,
     J. Seibert, S. Spicher, S. Grimme, WIREs Comput. Mol. Sci., 2020, 11,
     e01493. DOI: 10.1002/wcms.1493
   
   for GFN2-xTB:
   * C. Bannwarth, S. Ehlert and S. Grimme., J. Chem. Theory Comput., 2019,
     15, 1652-1671. DOI: 10.1021/acs.jctc.8b01176
   for GFN1-xTB:
   * S. Grimme, C. Bannwarth, P. Shushkov, J. Chem. Theory Comput., 2017,
     13, 1989-2009. DOI: 10.1021/acs.jctc.7b00118
   for GFN0-xTB:
   * P. Pracht, E. Caldeweyher, S. Ehlert, S. Grimme, ChemRxiv, 2019, preprint.
     DOI: 10.26434/chemrxiv.8326202.v1
   for GFN-FF:
   * S. Spicher and S. Grimme, Angew. Chem. Int. Ed., 2020, 59, 15665-15673.
     DOI: 10.1002/anie.202004239
   
   for ALPB and GBSA implicit solvation:
   * S. Ehlert, M. Stahn, S. Spicher, S. Grimme, J. Chem. Theory Comput.,
     2021, 17, 4250-4261. DOI: 10.1021/acs.jctc.1c00471
   
   for ddCOSMO and CPCM-X implicit solvation:
   * M. Stahn, S. Ehlert, S. Grimme, J. Phys. Chem. A,
     2023, XX, XXXX-XXXX. DOI: 10.1021/acs.jpca.3c04382
   
   for DFT-D4:
   * E. Caldeweyher, C. Bannwarth and S. Grimme, J. Chem. Phys., 2017,
     147, 034112. DOI: 10.1063/1.4993215
   * E. Caldeweyher, S. Ehlert, A. Hansen, H. Neugebauer, S. Spicher,
     C. Bannwarth and S. Grimme, J. Chem. Phys., 2019, 150, 154122.
     DOI: 10.1063/1.5090222
   * E. Caldeweyher, J.-M. Mewes, S. Ehlert and S. Grimme, Phys. Chem. Chem. Phys.
     2020, 22, 8499-8512. DOI: 10.1039/D0CP00502A
   
   for sTDA-xTB:
   * S. Grimme and C. Bannwarth, J. Chem. Phys., 2016, 145, 054103.
     DOI: 10.1063/1.4959605
   
   in the mass-spec context:
   * V. Asgeirsson, C. Bauer and S. Grimme, Chem. Sci., 2017, 8, 4879.
     DOI: 10.1039/c7sc00601b
   * J. Koopman and S. Grimme, ACS Omega 2019, 4, 12, 15120-15133.
     DOI: 10.1021/acsomega.9b02011
   
   for metadynamics refer to:
   * S. Grimme, J. Chem. Theory Comput., 2019, 155, 2847-2862
     DOI: 10.1021/acs.jctc.9b00143
   
   for SPH calculations refer to:
   * S. Spicher and S. Grimme, J. Chem. Theory Comput., 2021, 17, 1701-1714
     DOI: 10.1021/acs.jctc.0c01306
   
   for ONIOM refer to:
   * C. Plett, A. Katbashev, S. Ehlert, S. Grimme, M. Bursch,
     Phys. Chem. Chem. Phys., 2023, 25, 17860-17868. DOI: 10.1039/D3CP02178E
   
   for DIPRO refer to:
   * J. Kohn, N. Gildemeister, S. Grimme, D. Fazzi, A. Hansen,
     J. Chem. Phys., 2023, just accepted.
   
   for PTB refer to:
   * S. Grimme, M. Mueller, A. Hansen, J. Chem. Phys., 2023, 158, 124111.
     DOI: 10.1063/5.0137838
   
   with help from (in alphabetical order)
   P. Atkinson, C. Bannwarth, F. Bohle, G. Brandenburg, E. Caldeweyher
   M. Checinski, S. Dohm, S. Ehlert, S. Ehrlich, I. Gerasimov, C. Hölzer
   A. Katbashev, J. Kohn, J. Koopman, C. Lavigne, S. Lehtola, F. März, M. Müller,
   F. Musil, H. Neugebauer, J. Pisarek, C. Plett, P. Pracht, F. Pultar,
   J. Seibert, P. Shushkov, S. Spicher, M. Stahn, M. Steiner, T. Strunk,
   J. Stückrath, T. Rose, and J. Unsleber
   
 * started run on 2025/01/09 at 20:28:14.767     
   ID    Z sym.   atoms
    1    8 O      1, 3
    2    6 C      2

           -------------------------------------------------
          |                Calculation Setup                |
           -------------------------------------------------

          program call               : /home/adpal/xtb-dist/bin/xtb ./results/g_{6}_coordinatesxTB.xyz --ohess --uhf 1 --parallel 8
          coordinate file            : ./results/g_{6}_coordinatesxTB.xyz
          omp threads                :                     8


           -------------------------------------------------
          |                 G F N 2 - x T B                 |
           -------------------------------------------------

        Reference                      10.1021/acs.jctc.8b01176
      * Hamiltonian:
        H0-scaling (s, p, d)           1.850000    2.230000    2.230000
        zeta-weighting                 0.500000
      * Dispersion:
        s8                             2.700000
        a1                             0.520000
        a2                             5.000000
        s9                             5.000000
      * Repulsion:
        kExp                           1.500000    1.000000
        rExp                           1.000000
      * Coulomb:
        alpha                          2.000000
        third order                    shell-resolved
        anisotropic                    true
        a3                             3.000000
        a5                             4.000000
        cn-shift                       1.200000
        cn-exp                         4.000000
        max-rad                        5.000000

q/qsh data taken from xtbrestart
CAMM data taken from xtbrestart

          ...................................................
          :                      SETUP                      :
          :.................................................:
          :  # basis functions                  12          :
          :  # atomic orbitals                  12          :
          :  # shells                            6          :
          :  # electrons                        16          :
          :  max. iterations                   250          :
          :  Hamiltonian                  GFN2-xTB          :
          :  restarted?                       true          :
          :  GBSA solvation                  false          :
          :  PC potential                    false          :
          :  electronic temp.          300.0000000     K    :
          :  accuracy                    1.0000000          :
          :  -> integral cutoff          0.2500000E+02      :
          :  -> integral neglect         0.1000000E-07      :
          :  -> SCF convergence          0.1000000E-05 Eh   :
          :  -> wf. convergence          0.1000000E-03 e    :
          :  Broyden damping             0.4000000          :
          :  net charge                          0          :
          :  unpaired electrons                  1          :
          ...................................................

 iter      E             dE          RMSdq      gap      omega  full diag
   1    -10.4306052 -0.104306E+02  0.426E-07    8.45       0.0  T
   2    -10.4306052  0.177636E-14  0.248E-07    8.45  100000.0  T
   3    -10.4306052 -0.124345E-13  0.117E-08    8.45  100000.0  T

   *** convergence criteria satisfied after 3 iterations ***

         #    Occupation            Energy/Eh            Energy/eV
      -------------------------------------------------------------
         1        2.0000           -0.8108159             -22.0634
         2        2.0000           -0.7966848             -21.6789
         3        2.0000           -0.6648060             -18.0903
         4        2.0000           -0.6634711             -18.0540
         5        2.0000           -0.6634711             -18.0540
         6        2.0000           -0.5998338             -16.3223
         7        2.0000           -0.5344396             -14.5428
         8        2.0000           -0.5344396             -14.5428 (HOMO)
         9                         -0.2239572              -6.0942 (LUMO)
        10                         -0.2239572              -6.0942
        11                          0.3098933               8.4326
        12                          1.3642455              37.1230
      -------------------------------------------------------------
                  HL-Gap            0.3104824 Eh            8.4487 eV
             Fermi-level           -0.3791984 Eh          -10.3185 eV

 SCC (total)                   0 d,  0 h,  0 min,  0.006 sec
 SCC setup                      ...        0 min,  0.000 sec (  3.031%)
 Dispersion                     ...        0 min,  0.000 sec (  0.555%)
 classical contributions        ...        0 min,  0.000 sec (  0.309%)
 integral evaluation            ...        0 min,  0.000 sec (  3.390%)
 iterations                     ...        0 min,  0.005 sec ( 85.864%)
 molecular gradient             ...        0 min,  0.000 sec (  4.914%)
 printout                       ...        0 min,  0.000 sec (  1.555%)

         :::::::::::::::::::::::::::::::::::::::::::::::::::::
         ::                     SUMMARY                     ::
         :::::::::::::::::::::::::::::::::::::::::::::::::::::
         :: total energy             -10.308452289201 Eh    ::
         :: gradient norm              0.000000463516 Eh/a0 ::
         :: HOMO-LUMO gap              8.448656946637 eV    ::
         ::.................................................::
         :: SCC energy               -10.430605159851 Eh    ::
         :: -> isotropic ES            0.032324567671 Eh    ::
         :: -> anisotropic ES          0.003405663103 Eh    ::
         :: -> anisotropic XC          0.000432279511 Eh    ::
         :: -> dispersion             -0.000687152302 Eh    ::
         :: repulsion energy           0.122152870650 Eh    ::
         :: add. restraining           0.000000000000 Eh    ::
         :: total charge               0.000000000000 e     ::
         :::::::::::::::::::::::::::::::::::::::::::::::::::::

      ----------------------------------------------------------- 
     |                   =====================                   |
     |                        A N C O P T                        |
     |                   =====================                   |
     |               Approximate Normal Coordinate               |
     |                Rational Function Optimizer                |
      ----------------------------------------------------------- 
      ----------------------------------------------------------- 
     |                   =====================                   |
     |                        A N C O P T                        |
     |                   =====================                   |
     |               Approximate Normal Coordinate               |
     |                Rational Function Optimizer                |
      ----------------------------------------------------------- 

          ...................................................
          :                      SETUP                      :
          :.................................................:
          :   optimization level            normal          :
          :   max. optcycles                   200          :
          :   ANC micro-cycles                  20          :
          :   degrees of freedom                 4          :
          :.................................................:
          :   RF solver                   davidson          :
          :   write xtbopt.log                true          :
          :   linear (good luck)              true          :
          :   energy convergence         0.5000000E-05 Eh   :
          :   grad. convergence          0.1000000E-02 Eh/α :
          :   maxmium RF displ.          1.0000000          :
          :   Hlow (freq-cutoff)         0.1000000E-01      :
          :   Hmax (freq-cutoff)         5.0000000          :
          :   S6 in model hess.         20.0000000          :
          ...................................................

generating ANC from exact Hessian ...
Using Lindh-Hessian (1995)
 Shifting diagonal of input Hessian by   9.559166688159211E-003
 Lowest  eigenvalues of input Hessian
    0.000000    0.000000    0.000000    0.000000    0.000000    0.010000
    1.139180    1.252052    3.266731
 Highest eigenvalues
    0.000000    0.000000    0.010000    1.139180    1.252052    3.266731
 

........................................................................
.............................. CYCLE    1 ..............................
........................................................................

 iter      E             dE          RMSdq      gap      omega  full diag
   1    -10.4306052 -0.104306E+02  0.235E-09    8.45       0.0  T
   2    -10.4306052  0.106581E-13  0.129E-09    8.45  100000.0  T
   3    -10.4306052 -0.106581E-13  0.385E-10    8.45  100000.0  T
     SCC iter.                  ...        0 min,  0.000 sec
     gradient                   ...        0 min,  0.000 sec
 * total energy  :   -10.3084523 Eh     change        0.0000000E+00 Eh
   gradient norm :     0.0000005 Eh/α   predicted     0.0000000E+00 (    NaN%)
   displ. norm   :     0.0000006 α      lambda       -0.2404059E-08
   maximum displ.:     0.0000005 α      in ANC's #3, #2, #4, ...

   *** GEOMETRY OPTIMIZATION CONVERGED AFTER 1 ITERATIONS ***

------------------------------------------------------------------------
 total energy gain   :         0.0000000 Eh        0.0000 kcal/mol
 total RMSD          :         0.0000000 a0        0.0000 Å
 total power (kW/mol):         0.0000000 (step)    0.0000 (real)
------------------------------------------------------------------------

 ANCopt (total)                0 d,  0 h,  0 min,  0.001 sec
 optimizer setup                ...        0 min,  0.000 sec (  8.634%)
 model hessian                  ...        0 min,  0.000 sec (  3.429%)
 ANC generation                 ...        0 min,  0.000 sec (  4.715%)
 coordinate transformation      ...        0 min,  0.000 sec (  0.837%)
 single point calculation       ...        0 min,  0.001 sec ( 60.278%)
 optimization log               ...        0 min,  0.000 sec (  7.185%)
 hessian update                 ...        0 min,  0.000 sec (  0.265%)
 rational function              ...        0 min,  0.000 sec (  6.777%)

================
 final structure:
================
3
 xtb: 6.7.1 (edcfbbe)
O            1.25934373888822        0.13084806813883       -0.19434445910217
C            2.19312945020018       -0.13043984615737        0.41204758097681
O            3.12691681091160       -0.39172822198146        1.01843687812537
 
 Bond Distances (Angstroems)
 ---------------------------
O1-C2=1.1437         C2-O1=1.1437         C2-O3=1.1437         O3-C2=1.1437         
 O  C  Rav=1.1437 sigma=0.0000  Rmin=1.1437  Rmax=1.1437     2
 
 selected bond angles (degree)
 --------------------
O3-C2-O1=180.00                
 
 selected dihedral angles (degree)
 ---------------------------------

           -------------------------------------------------
          |                Final Singlepoint                |
           -------------------------------------------------

          ...................................................
          :                      SETUP                      :
          :.................................................:
          :  # basis functions                  12          :
          :  # atomic orbitals                  12          :
          :  # shells                            6          :
          :  # electrons                        16          :
          :  max. iterations                   250          :
          :  Hamiltonian                  GFN2-xTB          :
          :  restarted?                      false          :
          :  GBSA solvation                  false          :
          :  PC potential                    false          :
          :  electronic temp.          300.0000000     K    :
          :  accuracy                    1.0000000          :
          :  -> integral cutoff          0.2500000E+02      :
          :  -> integral neglect         0.1000000E-07      :
          :  -> SCF convergence          0.1000000E-05 Eh   :
          :  -> wf. convergence          0.1000000E-03 e    :
          :  Broyden damping             0.4000000          :
          :  net charge                          0          :
          :  unpaired electrons                  1          :
          ...................................................

 iter      E             dE          RMSdq      gap      omega  full diag
   1    -10.4306052 -0.104306E+02  0.407E-11    8.45       0.0  T
   2    -10.4306052 -0.710543E-14  0.239E-11    8.45  100000.0  T
   3    -10.4306052  0.000000E+00  0.226E-12    8.45  100000.0  T

   *** convergence criteria satisfied after 3 iterations ***

         #    Occupation            Energy/Eh            Energy/eV
      -------------------------------------------------------------
         1        2.0000           -0.8108159             -22.0634
         2        2.0000           -0.7966848             -21.6789
         3        2.0000           -0.6648060             -18.0903
         4        2.0000           -0.6634711             -18.0540
         5        2.0000           -0.6634711             -18.0540
         6        2.0000           -0.5998338             -16.3223
         7        2.0000           -0.5344396             -14.5428
         8        2.0000           -0.5344396             -14.5428 (HOMO)
         9                         -0.2239572              -6.0942 (LUMO)
        10                         -0.2239572              -6.0942
        11                          0.3098933               8.4326
        12                          1.3642455              37.1230
      -------------------------------------------------------------
                  HL-Gap            0.3104824 Eh            8.4487 eV
             Fermi-level           -0.3791984 Eh          -10.3185 eV

 SCC (total)                   0 d,  0 h,  0 min,  0.001 sec
 SCC setup                      ...        0 min,  0.000 sec ( 11.796%)
 Dispersion                     ...        0 min,  0.000 sec (  1.815%)
 classical contributions        ...        0 min,  0.000 sec (  0.907%)
 integral evaluation            ...        0 min,  0.000 sec ( 17.710%)
 iterations                     ...        0 min,  0.000 sec ( 25.876%)
 molecular gradient             ...        0 min,  0.000 sec ( 30.444%)
 printout                       ...        0 min,  0.000 sec (  8.792%)

         :::::::::::::::::::::::::::::::::::::::::::::::::::::
         ::                     SUMMARY                     ::
         :::::::::::::::::::::::::::::::::::::::::::::::::::::
         :: total energy             -10.308452289201 Eh    ::
         :: gradient norm              0.000000463515 Eh/a0 ::
         :: HOMO-LUMO gap              8.448656944022 eV    ::
         ::.................................................::
         :: SCC energy               -10.430605159851 Eh    ::
         :: -> isotropic ES            0.032324567496 Eh    ::
         :: -> anisotropic ES          0.003405663094 Eh    ::
         :: -> anisotropic XC          0.000432279507 Eh    ::
         :: -> dispersion             -0.000687152302 Eh    ::
         :: repulsion energy           0.122152870650 Eh    ::
         :: add. restraining           0.000000000000 Eh    ::
         :: total charge               0.000000000000 e     ::
         :::::::::::::::::::::::::::::::::::::::::::::::::::::

           ------------------------------------------------- 
          |                Numerical Hessian                |
           ------------------------------------------------- 
step length          :   0.00500
SCC accuracy         :   0.30000
Hessian scale factor :   1.00000
frozen atoms in %    :   0.00000    0
RMS gradient         :   0.00000
estimated CPU  time      0.00 min
estimated wall time      0.00 min

writing file <hessian>.

 vibrational frequencies (cm⁻¹)
eigval :        0.00     0.00     0.00     0.00     0.00   600.23
eigval :      600.42  1424.76  2592.98
           -------------------------------------------------
          |                Property Printout                |
           -------------------------------------------------

    * Orbital Energies and Occupations

         #    Occupation            Energy/Eh            Energy/eV
      -------------------------------------------------------------
         1        2.0000           -0.8108159             -22.0634
         2        2.0000           -0.7966848             -21.6789
         3        2.0000           -0.6648060             -18.0903
         4        2.0000           -0.6634711             -18.0540
         5        2.0000           -0.6634711             -18.0540
         6        2.0000           -0.5998338             -16.3223
         7        2.0000           -0.5344396             -14.5428
         8        2.0000           -0.5344396             -14.5428 (HOMO)
         9                         -0.2239572              -6.0942 (LUMO)
        10                         -0.2239572              -6.0942
        11                          0.3098933               8.4326
        12                          1.3642455              37.1230
      -------------------------------------------------------------
                  HL-Gap            0.3104824 Eh            8.4487 eV
             Fermi-level           -0.3791984 Eh          -10.3185 eV

     #   Z          covCN         q      C6AA      α(0)
     1   8 O        0.856    -0.232    18.599     5.782
     2   6 C        1.711     0.464    21.600     7.524
     3   8 O        0.856    -0.232    18.599     5.782

 Mol. C6AA /au·bohr⁶  :        174.800200
 Mol. C8AA /au·bohr⁸  :       4029.884812
 Mol. α(0) /au        :         19.088396


Wiberg/Mayer (AO) data.
largest (>0.10) Wiberg bond orders for each atom

 ---------------------------------------------------------------------------
     #   Z sym  total        # sym  WBO       # sym  WBO       # sym  WBO
 ---------------------------------------------------------------------------
     1   8 O    2.370 --     2 C    1.968     3 O    0.402
     2   6 C    3.936 --     3 O    1.968     1 O    1.968
     3   8 O    2.370 --     2 C    1.968     1 O    0.402
 ---------------------------------------------------------------------------

Topologies differ in total number of bonds
Writing topology from bond orders to xtbtopo.mol

molecular dipole:
                 x           y           z       tot (Debye)
 q only:       -0.000       0.000       0.000
   full:       -0.000       0.000       0.000       0.000
molecular quadrupole (traceless):
                xx          xy          yy          xz          yz          zz
 q only:       -1.084       0.607       0.914      -1.408       0.394       0.170
  q+dip:       -1.553       0.869       1.310      -2.018       0.565       0.243
   full:       -2.180       1.220       1.839      -2.832       0.792       0.341

           -------------------------------------------------
          |                Geometry Summary                 |
           -------------------------------------------------

      molecular mass/u    :       44.0095457
   center of mass at/Å    :        2.1931310      -0.1304508       0.4120392
  moments of inertia/u·Å² :        0.2282940E-10   0.4185248E+02   0.4185248E+02
rotational constants/cm⁻¹ :        0.7384177E+12   0.4027869E+00   0.4027869E+00

 * 2 selected distances

     #   Z          #   Z                                           value/Å
     1   8 O        2   6 C                                       1.1436515 (max)
     2   6 C        3   8 O                                       1.1436515 (min)

 * 1 distinct bonds (by element types)

   Z      Z             #   av. dist./Å        max./Å        min./Å
   6 C    8 O           2     1.1436515     1.1436515     1.1436515

           -------------------------------------------------
          |               Frequency Printout                |
           -------------------------------------------------
 vibrational frequencies (cm⁻¹)
eigval :        0.00     0.00     0.00     0.00     0.00   600.23
eigval :      600.42  1424.76  2592.98
 reduced masses (amu)
   1: 16.00   2: 14.91   3: 14.91   4: 14.91   5: 16.00   6: 13.10   7: 13.10   8: 16.00
   9: 13.10
 IR intensities (km·mol⁻¹)
   1:  0.00   2:  0.00   3:  0.00   4:  0.00   5:  0.00   6: 68.70   7: 68.68   8:  0.00
   9:******
 Raman intensities (Ä⁴*amu⁻¹)
   1:  0.00   2:  0.00   3:  0.00   4:  0.00   5:  0.00   6:  0.00   7:  0.00   8:  0.00
   9:  0.00
 output can be read by thermo (or use thermo option).
 writing <g98.out> molden fake output.
 recommended (thermochemical) frequency scaling factor: 1.0
           -------------------------------------------------
          |             Thermodynamic Functions             |
           -------------------------------------------------

Molecule has the following symmetry elements: (i) (Cinf) (C2) 2*(sigma) 
It seems to be the Dinfh point group
din symmetry found (for desy threshold:  0.10E+00) used in thermo

          ...................................................
          :                      SETUP                      :
          :.................................................:
          :  # frequencies                           4      :
          :  # imaginary freq.                       0      :
          :  linear?                              true      :
          :  only rotor calc.                    false      :
          :  symmetry                              din      :
          :  rotational number                       2      :
          :  scaling factor                  1.0000000      :
          :  rotor cutoff                   50.0000000 cm⁻¹ :
          :  imag. cutoff                  -20.0000000 cm⁻¹ :
          :.................................................:

    mode    ω/cm⁻¹     T·S(HO)/kcal·mol⁻¹    T·S(FR)/kcal·mol⁻¹   T·S(vib)
   ------------------------------------------------------------------------
   ------------------------------------------------------------------------

   temp. (K)  partition function   enthalpy   heat capacity  entropy
                                   cal/mol     cal/K/mol   cal/K/mol   J/K/mol
 298.15  VIB   1.12                  204.770      2.161      0.915
         ROT   257.                  592.502      1.987     13.017
         INT   288.                  797.271      4.148     13.931
         TR   0.282E+27             1481.254      4.968     37.255
         TOT                        2278.5253     9.1161    51.1857   214.1609

       T/K    H(0)-H(T)+PV         H(T)/Eh          T*S/Eh         G(T)/Eh
   ------------------------------------------------------------------------
    298.15    0.363106E-02    0.155194E-01    0.243200E-01   -0.880055E-02
   ------------------------------------------------------------------------

         :::::::::::::::::::::::::::::::::::::::::::::::::::::
         ::                  THERMODYNAMIC                  ::
         :::::::::::::::::::::::::::::::::::::::::::::::::::::
         :: total free energy         -10.317252841931 Eh   ::
         ::.................................................::
         :: total energy              -10.308452289201 Eh   ::
         :: zero point energy           0.011888361547 Eh   ::
         :: G(RRHO) w/o ZPVE           -0.020688914276 Eh   ::
         :: G(RRHO) contrib.           -0.008800552729 Eh   ::
         :::::::::::::::::::::::::::::::::::::::::::::::::::::

optimized geometry written to: xtbopt.xyz


           -------------------------------------------------
          | TOTAL ENERGY              -10.308452289201 Eh   |
          | TOTAL ENTHALPY            -10.292932866541 Eh   |
          | TOTAL FREE ENERGY         -10.317252841931 Eh   |
          | GRADIENT NORM               0.000000463523 Eh/α |
          | HOMO-LUMO GAP               8.448656944024 eV   |
           -------------------------------------------------

------------------------------------------------------------------------
 * finished run on 2025/01/09 at 20:28:14.798     
------------------------------------------------------------------------
 total:
 * wall-time:     0 d,  0 h,  0 min,  0.029 sec
 *  cpu-time:     0 d,  0 h,  0 min,  0.189 sec
 * ratio c/w:     6.469 speedup
 SCF:
 * wall-time:     0 d,  0 h,  0 min,  0.006 sec
 *  cpu-time:     0 d,  0 h,  0 min,  0.046 sec
 * ratio c/w:     7.317 speedup
 ANC optimizer:
 * wall-time:     0 d,  0 h,  0 min,  0.003 sec
 *  cpu-time:     0 d,  0 h,  0 min,  0.021 sec
 * ratio c/w:     7.993 speedup
 analytical hessian:
 * wall-time:     0 d,  0 h,  0 min,  0.005 sec
 *  cpu-time:     0 d,  0 h,  0 min,  0.040 sec
 * ratio c/w:     8.000 speedup

normal termination of xtb
