      -----------------------------------------------------------      
     |                   =====================                   |     
     |                           x T B                           |     
     |                   =====================                   |     
     |                         S. Grimme                         |     
     |          Mulliken Center for Theoretical Chemistry        |     
     |                    University of Bonn                     |     
      -----------------------------------------------------------      

   * xtb version 6.7.1 (edcfbbe) compiled by 'albert@albert-system' on 2024-07-22

   xtb is free software: you can redistribute it and/or modify it under
   the terms of the GNU Lesser General Public License as published by
   the Free Software Foundation, either version 3 of the License, or
   (at your option) any later version.
   
   xtb is distributed in the hope that it will be useful,
   but WITHOUT ANY WARRANTY; without even the implied warranty of
   MERCHANTABILITY or FITNESS FOR A PARTICULAR PURPOSE.  See the
   GNU Lesser General Public License for more details.
   
   Cite this work as:
   * C. Bannwarth, E. Caldeweyher, S. Ehlert, A. Hansen, P. Pracht,
     J. Seibert, S. Spicher, S. Grimme, WIREs Comput. Mol. Sci., 2020, 11,
     e01493. DOI: 10.1002/wcms.1493
   
   for GFN2-xTB:
   * C. Bannwarth, S. Ehlert and S. Grimme., J. Chem. Theory Comput., 2019,
     15, 1652-1671. DOI: 10.1021/acs.jctc.8b01176
   for GFN1-xTB:
   * S. Grimme, C. Bannwarth, P. Shushkov, J. Chem. Theory Comput., 2017,
     13, 1989-2009. DOI: 10.1021/acs.jctc.7b00118
   for GFN0-xTB:
   * P. Pracht, E. Caldeweyher, S. Ehlert, S. Grimme, ChemRxiv, 2019, preprint.
     DOI: 10.26434/chemrxiv.8326202.v1
   for GFN-FF:
   * S. Spicher and S. Grimme, Angew. Chem. Int. Ed., 2020, 59, 15665-15673.
     DOI: 10.1002/anie.202004239
   
   for ALPB and GBSA implicit solvation:
   * S. Ehlert, M. Stahn, S. Spicher, S. Grimme, J. Chem. Theory Comput.,
     2021, 17, 4250-4261. DOI: 10.1021/acs.jctc.1c00471
   
   for ddCOSMO and CPCM-X implicit solvation:
   * M. Stahn, S. Ehlert, S. Grimme, J. Phys. Chem. A,
     2023, XX, XXXX-XXXX. DOI: 10.1021/acs.jpca.3c04382
   
   for DFT-D4:
   * E. Caldeweyher, C. Bannwarth and S. Grimme, J. Chem. Phys., 2017,
     147, 034112. DOI: 10.1063/1.4993215
   * E. Caldeweyher, S. Ehlert, A. Hansen, H. Neugebauer, S. Spicher,
     C. Bannwarth and S. Grimme, J. Chem. Phys., 2019, 150, 154122.
     DOI: 10.1063/1.5090222
   * E. Caldeweyher, J.-M. Mewes, S. Ehlert and S. Grimme, Phys. Chem. Chem. Phys.
     2020, 22, 8499-8512. DOI: 10.1039/D0CP00502A
   
   for sTDA-xTB:
   * S. Grimme and C. Bannwarth, J. Chem. Phys., 2016, 145, 054103.
     DOI: 10.1063/1.4959605
   
   in the mass-spec context:
   * V. Asgeirsson, C. Bauer and S. Grimme, Chem. Sci., 2017, 8, 4879.
     DOI: 10.1039/c7sc00601b
   * J. Koopman and S. Grimme, ACS Omega 2019, 4, 12, 15120-15133.
     DOI: 10.1021/acsomega.9b02011
   
   for metadynamics refer to:
   * S. Grimme, J. Chem. Theory Comput., 2019, 155, 2847-2862
     DOI: 10.1021/acs.jctc.9b00143
   
   for SPH calculations refer to:
   * S. Spicher and S. Grimme, J. Chem. Theory Comput., 2021, 17, 1701-1714
     DOI: 10.1021/acs.jctc.0c01306
   
   for ONIOM refer to:
   * C. Plett, A. Katbashev, S. Ehlert, S. Grimme, M. Bursch,
     Phys. Chem. Chem. Phys., 2023, 25, 17860-17868. DOI: 10.1039/D3CP02178E
   
   for DIPRO refer to:
   * J. Kohn, N. Gildemeister, S. Grimme, D. Fazzi, A. Hansen,
     J. Chem. Phys., 2023, just accepted.
   
   for PTB refer to:
   * S. Grimme, M. Mueller, A. Hansen, J. Chem. Phys., 2023, 158, 124111.
     DOI: 10.1063/5.0137838
   
   with help from (in alphabetical order)
   P. Atkinson, C. Bannwarth, F. Bohle, G. Brandenburg, E. Caldeweyher
   M. Checinski, S. Dohm, S. Ehlert, S. Ehrlich, I. Gerasimov, C. Hölzer
   A. Katbashev, J. Kohn, J. Koopman, C. Lavigne, S. Lehtola, F. März, M. Müller,
   F. Musil, H. Neugebauer, J. Pisarek, C. Plett, P. Pracht, F. Pultar,
   J. Seibert, P. Shushkov, S. Spicher, M. Stahn, M. Steiner, T. Strunk,
   J. Stückrath, T. Rose, and J. Unsleber
   
 * started run on 2025/01/10 at 14:24:58.978     
   ID    Z sym.   atoms
    1    8 O      1, 4, 13
    2    1 H      2, 3, 5, 6, 9, 12, 14, 15, 18
    3    6 C      7, 10, 16
    4    7 N      8, 11, 17

           -------------------------------------------------
          |                Calculation Setup                |
           -------------------------------------------------

          program call               : /home/adpal/xtb-dist/bin/xtb ./results/p_{0,31}_coordinatesxTB.xyz --ohess --uhf 1 --parallel 8
          coordinate file            : ./results/p_{0,31}_coordinatesxTB.xyz
          omp threads                :                     8


           -------------------------------------------------
          |                 G F N 2 - x T B                 |
           -------------------------------------------------

        Reference                      10.1021/acs.jctc.8b01176
      * Hamiltonian:
        H0-scaling (s, p, d)           1.850000    2.230000    2.230000
        zeta-weighting                 0.500000
      * Dispersion:
        s8                             2.700000
        a1                             0.520000
        a2                             5.000000
        s9                             5.000000
      * Repulsion:
        kExp                           1.500000    1.000000
        rExp                           1.000000
      * Coulomb:
        alpha                          2.000000
        third order                    shell-resolved
        anisotropic                    true
        a3                             3.000000
        a5                             4.000000
        cn-shift                       1.200000
        cn-exp                         4.000000
        max-rad                        5.000000

q/qsh data taken from xtbrestart
CAMM data taken from xtbrestart

          ...................................................
          :                      SETUP                      :
          :.................................................:
          :  # basis functions                  45          :
          :  # atomic orbitals                  45          :
          :  # shells                           27          :
          :  # electrons                        54          :
          :  max. iterations                   250          :
          :  Hamiltonian                  GFN2-xTB          :
          :  restarted?                       true          :
          :  GBSA solvation                  false          :
          :  PC potential                    false          :
          :  electronic temp.          300.0000000     K    :
          :  accuracy                    1.0000000          :
          :  -> integral cutoff          0.2500000E+02      :
          :  -> integral neglect         0.1000000E-07      :
          :  -> SCF convergence          0.1000000E-05 Eh   :
          :  -> wf. convergence          0.1000000E-03 e    :
          :  Broyden damping             0.4000000          :
          :  net charge                          0          :
          :  unpaired electrons                  1          :
          ...................................................

 iter      E             dE          RMSdq      gap      omega  full diag
   1    -32.2113766 -0.322114E+02  0.205E-06    4.31       0.0  T
   2    -32.2113766 -0.781597E-13  0.121E-06    4.31   19440.0  T
   3    -32.2113766  0.142109E-13  0.642E-07    4.31   36731.6  T

   *** convergence criteria satisfied after 3 iterations ***

         #    Occupation            Energy/Eh            Energy/eV
      -------------------------------------------------------------
         1        2.0000           -0.7462283             -20.3059
       ...           ...                  ...                  ...
        21        2.0000           -0.4869408             -13.2503
        22        2.0000           -0.4697430             -12.7824
        23        2.0000           -0.4380443             -11.9198
        24        2.0000           -0.4311028             -11.7309
        25        2.0000           -0.4152911             -11.3006
        26        2.0000           -0.4076401             -11.0925
        27        2.0000           -0.3812417             -10.3741 (HOMO)
        28                         -0.2228676              -6.0645 (LUMO)
        29                         -0.0087545              -0.2382
        30                          0.0152929               0.4161
        31                          0.0415190               1.1298
        32                          0.0463773               1.2620
       ...                                ...                  ...
        45                          0.5861234              15.9492
      -------------------------------------------------------------
                  HL-Gap            0.1583741 Eh            4.3096 eV
             Fermi-level           -0.3020547 Eh           -8.2193 eV

 SCC (total)                   0 d,  0 h,  0 min,  0.010 sec
 SCC setup                      ...        0 min,  0.000 sec (  2.439%)
 Dispersion                     ...        0 min,  0.000 sec (  1.672%)
 classical contributions        ...        0 min,  0.000 sec (  0.252%)
 integral evaluation            ...        0 min,  0.001 sec (  6.392%)
 iterations                     ...        0 min,  0.007 sec ( 72.818%)
 molecular gradient             ...        0 min,  0.001 sec ( 13.950%)
 printout                       ...        0 min,  0.000 sec (  2.244%)

         :::::::::::::::::::::::::::::::::::::::::::::::::::::
         ::                     SUMMARY                     ::
         :::::::::::::::::::::::::::::::::::::::::::::::::::::
         :: total energy             -31.940875494732 Eh    ::
         :: gradient norm              0.000017590070 Eh/a0 ::
         :: HOMO-LUMO gap              4.309579457871 eV    ::
         ::.................................................::
         :: SCC energy               -32.211316225038 Eh    ::
         :: -> isotropic ES            0.095961345236 Eh    ::
         :: -> anisotropic ES         -0.005546419745 Eh    ::
         :: -> anisotropic XC          0.011806086104 Eh    ::
         :: -> dispersion             -0.011805081362 Eh    ::
         :: repulsion energy           0.270440730306 Eh    ::
         :: add. restraining           0.000000000000 Eh    ::
         :: total charge              -0.000000000000 e     ::
         :::::::::::::::::::::::::::::::::::::::::::::::::::::

      ----------------------------------------------------------- 
     |                   =====================                   |
     |                        A N C O P T                        |
     |                   =====================                   |
     |               Approximate Normal Coordinate               |
     |                Rational Function Optimizer                |
      ----------------------------------------------------------- 
      ----------------------------------------------------------- 
     |                   =====================                   |
     |                        A N C O P T                        |
     |                   =====================                   |
     |               Approximate Normal Coordinate               |
     |                Rational Function Optimizer                |
      ----------------------------------------------------------- 

          ...................................................
          :                      SETUP                      :
          :.................................................:
          :   optimization level            normal          :
          :   max. optcycles                   200          :
          :   ANC micro-cycles                  20          :
          :   degrees of freedom                48          :
          :.................................................:
          :   RF solver                   davidson          :
          :   write xtbopt.log                true          :
          :   linear?                        false          :
          :   energy convergence         0.5000000E-05 Eh   :
          :   grad. convergence          0.1000000E-02 Eh/α :
          :   maxmium RF displ.          1.0000000          :
          :   Hlow (freq-cutoff)         0.1000000E-01      :
          :   Hmax (freq-cutoff)         5.0000000          :
          :   S6 in model hess.         20.0000000          :
          ...................................................

generating ANC from exact Hessian ...
Using Lindh-Hessian (1995)
 Shifting diagonal of input Hessian by   8.616368235500190E-003
 Lowest  eigenvalues of input Hessian
    0.000000    0.000000    0.000000    0.000000    0.000000    0.000000
    0.010000    0.010619    0.014503    0.015482    0.019413    0.020471
    0.030151    0.034100    0.035964    0.043583    0.048732    0.055597
 Highest eigenvalues
    1.510295    1.621861    1.677220    1.723508    1.786759    2.219177
 

........................................................................
.............................. CYCLE    1 ..............................
........................................................................

 iter      E             dE          RMSdq      gap      omega  full diag
   1    -32.2113766 -0.322114E+02  0.170E-07    4.31       0.0  T
   2    -32.2113766 -0.142109E-13  0.113E-07    4.31  100000.0  T
   3    -32.2113766  0.142109E-13  0.658E-08    4.31  100000.0  T
     SCC iter.                  ...        0 min,  0.002 sec
     gradient                   ...        0 min,  0.001 sec
 * total energy  :   -31.9408755 Eh     change        0.7105427E-14 Eh
   gradient norm :     0.0000176 Eh/α   predicted     0.0000000E+00 (-100.00%)
   displ. norm   :     0.0008207 α      lambda       -0.6552567E-08
   maximum displ.:     0.0006296 α      in ANC's #1, #2, #4, ...

   *** GEOMETRY OPTIMIZATION CONVERGED AFTER 1 ITERATIONS ***

------------------------------------------------------------------------
 total energy gain   :         0.0000000 Eh        0.0000 kcal/mol
 total RMSD          :         0.0000001 a0        0.0000 Å
 total power (kW/mol):         0.0000000 (step)    0.0000 (real)
------------------------------------------------------------------------

 ANCopt (total)                0 d,  0 h,  0 min,  0.009 sec
 optimizer setup                ...        0 min,  0.000 sec (  1.367%)
 model hessian                  ...        0 min,  0.004 sec ( 46.953%)
 ANC generation                 ...        0 min,  0.000 sec (  4.322%)
 coordinate transformation      ...        0 min,  0.000 sec (  0.171%)
 single point calculation       ...        0 min,  0.004 sec ( 40.279%)
 optimization log               ...        0 min,  0.000 sec (  2.818%)
 hessian update                 ...        0 min,  0.000 sec (  0.023%)
 rational function              ...        0 min,  0.000 sec (  2.433%)

================
 final structure:
================
18
 xtb: 6.7.1 (edcfbbe)
O            2.39291022541180        1.20769530549125       -1.91045390230836
H           -0.04866259270976        2.00711500423557       -1.51439712298008
H            3.53542479466626        1.69510537297301        0.10014408361788
O            1.19493172095475        1.93232507389741       -3.66941241270101
H           -0.75593453506804        0.77858530291281       -2.34541580941393
H            2.09901253205446        2.13446179127803       -3.93477475386912
C            1.22366116191688        0.96833796789352       -2.66742936316168
N            0.07051113434293        1.04897187575874       -1.82820653012049
H            1.27006375249286       -0.05092132146125       -3.09679339011236
C            2.69957585943594        0.21047804238515       -0.98522635584814
N            3.73616534082024        0.73533683217538       -0.14572959407067
H            1.77632803708138       -0.10516609024657       -0.46052743831533
O            3.13487742394460       -0.96946612632933       -1.61866305434328
H            5.51917011052963       -1.70910512249265       -3.51528135687017
H            3.84225830691157        0.17605673404001        0.69055135731037
C            4.26127683294725       -0.86896002117066       -2.34719206786235
N            4.65944188236951       -1.86165229340901       -2.99945560360904
H            4.73419801189771        0.12257167206861       -2.28903668534226
 
 Bond Distances (Angstroems)
 ---------------------------
O1-C7=1.4133         O1-C10=1.3945        H2-N8=1.0152         H3-N11=1.0109        O4-H6=0.9637         O4-C7=1.3907         
H5-N8=1.0117         H6-O4=0.9637         C7-O1=1.4133         C7-O4=1.3907         C7-N8=1.4285         C7-H9=1.1070         
N8-H2=1.0152         N8-H5=1.0117         N8-C7=1.4285         H9-C7=1.1070         C10-O1=1.3945        C10-N11=1.4334       
C10-H12=1.1078       C10-O13=1.4082       N11-H3=1.0109        N11-C10=1.4334       N11-H15=1.0116       H12-C10=1.1078       
O13-C10=1.4082       O13-C16=1.3452       H14-N17=1.0141       H15-N11=1.0116       C16-O13=1.3452       C16-N17=1.2528       
C16-H18=1.1001       N17-H14=1.0141       N17-C16=1.2528       H18-C16=1.1001       
 C  H  Rav=1.1050 sigma=0.0035  Rmin=1.1001  Rmax=1.1078     3
 N  H  Rav=1.0127 sigma=0.0017  Rmin=1.0109  Rmax=1.0152     5
 N  C  Rav=1.3716 sigma=0.0840  Rmin=1.2528  Rmax=1.4334     3
 O  H  Rav=0.9637 sigma=0.0000  Rmin=0.9637  Rmax=0.9637     1
 O  C  Rav=1.3904 sigma=0.0241  Rmin=1.3452  Rmax=1.4133     5
 
 selected bond angles (degree)
 --------------------
C10-O1-C7=114.59               C7-O4-H6=108.93                O4-C7-O1=106.59                N8-C7-O1=110.10                
N8-C7-O4=111.56                H9-C7-O1=109.21                H9-C7-O4=111.08                H9-C7-N8=108.28                
H5-N8-H2=108.32                C7-N8-H2=109.25                C7-N8-H5=110.12                N11-C10-O1=106.60              
H12-C10-O1=109.56              H12-C10-N11=115.44             O13-C10-O1=111.64              O13-C10-N11=110.29             
O13-C10-H12=103.41             
 
 selected dihedral angles (degree)
 ---------------------------------
O4-C7-O1-C10=189.51           N8-C7-O1-C10= 68.36           H9-C7-O1-C10=309.59           O1-C7-O4-H6= 33.39            
N8-C7-O4-H6=153.61            H9-C7-O4-H6=274.53            H2-N8-C7-O1= 67.34            H2-N8-C7-O4=309.21            
H2-N8-C7-H9=186.67            H5-N8-C7-O1=186.19            H5-N8-C7-O4= 68.06            H5-N8-C7-H9=305.52            
N11-C10-O1-C7=191.11          H12-C10-O1-C7=316.68          O13-C10-O1-C7= 70.61          
           -------------------------------------------------
          |                Final Singlepoint                |
           -------------------------------------------------

          ...................................................
          :                      SETUP                      :
          :.................................................:
          :  # basis functions                  45          :
          :  # atomic orbitals                  45          :
          :  # shells                           27          :
          :  # electrons                        54          :
          :  max. iterations                   250          :
          :  Hamiltonian                  GFN2-xTB          :
          :  restarted?                      false          :
          :  GBSA solvation                  false          :
          :  PC potential                    false          :
          :  electronic temp.          300.0000000     K    :
          :  accuracy                    1.0000000          :
          :  -> integral cutoff          0.2500000E+02      :
          :  -> integral neglect         0.1000000E-07      :
          :  -> SCF convergence          0.1000000E-05 Eh   :
          :  -> wf. convergence          0.1000000E-03 e    :
          :  Broyden damping             0.4000000          :
          :  net charge                          0          :
          :  unpaired electrons                  1          :
          ...................................................

 iter      E             dE          RMSdq      gap      omega  full diag
   1    -32.2113766 -0.322114E+02  0.150E-08    4.31       0.0  T
   2    -32.2113766  0.284217E-13  0.902E-09    4.31  100000.0  T
   3    -32.2113766 -0.142109E-13  0.367E-09    4.31  100000.0  T

   *** convergence criteria satisfied after 3 iterations ***

         #    Occupation            Energy/Eh            Energy/eV
      -------------------------------------------------------------
         1        2.0000           -0.7462283             -20.3059
       ...           ...                  ...                  ...
        21        2.0000           -0.4869408             -13.2503
        22        2.0000           -0.4697430             -12.7824
        23        2.0000           -0.4380443             -11.9198
        24        2.0000           -0.4311028             -11.7309
        25        2.0000           -0.4152911             -11.3006
        26        2.0000           -0.4076401             -11.0925
        27        2.0000           -0.3812417             -10.3741 (HOMO)
        28                         -0.2228676              -6.0645 (LUMO)
        29                         -0.0087545              -0.2382
        30                          0.0152929               0.4161
        31                          0.0415190               1.1298
        32                          0.0463773               1.2620
       ...                                ...                  ...
        45                          0.5861234              15.9492
      -------------------------------------------------------------
                  HL-Gap            0.1583741 Eh            4.3096 eV
             Fermi-level           -0.3020547 Eh           -8.2193 eV

 SCC (total)                   0 d,  0 h,  0 min,  0.004 sec
 SCC setup                      ...        0 min,  0.000 sec (  3.039%)
 Dispersion                     ...        0 min,  0.000 sec (  1.284%)
 classical contributions        ...        0 min,  0.000 sec (  0.271%)
 integral evaluation            ...        0 min,  0.001 sec ( 12.970%)
 iterations                     ...        0 min,  0.002 sec ( 44.988%)
 molecular gradient             ...        0 min,  0.001 sec ( 33.149%)
 printout                       ...        0 min,  0.000 sec (  3.781%)

         :::::::::::::::::::::::::::::::::::::::::::::::::::::
         ::                     SUMMARY                     ::
         :::::::::::::::::::::::::::::::::::::::::::::::::::::
         :: total energy             -31.940875494732 Eh    ::
         :: gradient norm              0.000017591890 Eh/a0 ::
         :: HOMO-LUMO gap              4.309579356316 eV    ::
         ::.................................................::
         :: SCC energy               -32.211316225038 Eh    ::
         :: -> isotropic ES            0.095961345723 Eh    ::
         :: -> anisotropic ES         -0.005546419908 Eh    ::
         :: -> anisotropic XC          0.011806086736 Eh    ::
         :: -> dispersion             -0.011805081377 Eh    ::
         :: repulsion energy           0.270440730306 Eh    ::
         :: add. restraining           0.000000000000 Eh    ::
         :: total charge               0.000000000000 e     ::
         :::::::::::::::::::::::::::::::::::::::::::::::::::::

           ------------------------------------------------- 
          |                Numerical Hessian                |
           ------------------------------------------------- 
step length          :   0.00500
SCC accuracy         :   0.30000
Hessian scale factor :   1.00000
frozen atoms in %    :   0.00000    0
RMS gradient         :   0.00002
estimated CPU  time      0.04 min
estimated wall time      0.01 min

writing file <hessian>.

 projected vibrational frequencies (cm⁻¹)
eigval :       -0.00    -0.00    -0.00     0.00     0.00     0.00
eigval :       46.78    53.44   106.88   124.04   162.39   168.37
eigval :      187.59   217.44   261.73   332.91   414.22   450.77
eigval :      479.50   521.94   580.20   711.66   780.68   874.91
eigval :      922.88   942.07   961.48   971.43   991.34  1048.62
eigval :     1077.38  1102.39  1139.78  1161.71  1190.01  1232.88
eigval :     1237.14  1289.76  1311.12  1337.15  1353.20  1358.23
eigval :     1500.41  1534.36  1734.72  2803.95  2821.11  2834.85
eigval :     3389.17  3402.67  3432.58  3453.52  3473.57  3546.68
           -------------------------------------------------
          |                Property Printout                |
           -------------------------------------------------

    * Orbital Energies and Occupations

         #    Occupation            Energy/Eh            Energy/eV
      -------------------------------------------------------------
         1        2.0000           -0.7462283             -20.3059
       ...           ...                  ...                  ...
        15        2.0000           -0.5415578             -14.7365
        16        2.0000           -0.5333991             -14.5145
        17        2.0000           -0.5268970             -14.3376
        18        2.0000           -0.5083088             -13.8318
        19        2.0000           -0.5061892             -13.7741
        20        2.0000           -0.5036292             -13.7044
        21        2.0000           -0.4869408             -13.2503
        22        2.0000           -0.4697430             -12.7824
        23        2.0000           -0.4380443             -11.9198
        24        2.0000           -0.4311028             -11.7309
        25        2.0000           -0.4152911             -11.3006
        26        2.0000           -0.4076401             -11.0925
        27        2.0000           -0.3812417             -10.3741 (HOMO)
        28                         -0.2228676              -6.0645 (LUMO)
        29                         -0.0087545              -0.2382
        30                          0.0152929               0.4161
        31                          0.0415190               1.1298
        32                          0.0463773               1.2620
        33                          0.0671258               1.8266
        34                          0.0949366               2.5834
        35                          0.1248997               3.3987
        36                          0.1344649               3.6590
        37                          0.1404690               3.8224
        38                          0.1457818               3.9669
       ...                                ...                  ...
        45                          0.5861234              15.9492
      -------------------------------------------------------------
                  HL-Gap            0.1583741 Eh            4.3096 eV
             Fermi-level           -0.3020547 Eh           -8.2193 eV

     #   Z          covCN         q      C6AA      α(0)
     1   8 O        1.704    -0.351    19.910     6.024
     2   1 H        0.860     0.176     1.239     1.744
     3   1 H        0.860     0.179     1.222     1.732
     4   8 O        1.657    -0.446    21.763     6.298
     5   1 H        0.860     0.175     1.243     1.747
     6   1 H        0.805     0.319     0.667     1.283
     7   6 C        3.558     0.327    16.466     5.920
     8   7 N        2.630    -0.366    29.457     8.061
     9   1 H        0.922     0.016     2.797     2.616
    10   6 C        3.595     0.322    16.299     5.845
    11   7 N        2.631    -0.356    29.186     8.023
    12   1 H        0.922     0.026     2.638     2.540
    13   8 O        1.708    -0.265    18.400     5.792
    14   1 H        0.860     0.158     1.345     1.817
    15   1 H        0.860     0.172     1.262     1.760
    16   6 C        2.724     0.231    23.154     7.877
    17   7 N        1.774    -0.329    29.340     8.021
    18   1 H        0.923     0.014     2.830     2.631

 Mol. C6AA /au·bohr⁶  :       2899.890406
 Mol. C8AA /au·bohr⁸  :      60084.930584
 Mol. α(0) /au        :         79.729033


Wiberg/Mayer (AO) data.
largest (>0.10) Wiberg bond orders for each atom

 ---------------------------------------------------------------------------
     #   Z sym  total        # sym  WBO       # sym  WBO       # sym  WBO
 ---------------------------------------------------------------------------
     1   8 O    2.086 --    10 C    0.974     7 C    0.937
     2   1 H    0.969 --     8 N    0.952
     3   1 H    0.968 --    11 N    0.951
     4   8 O    1.973 --     7 C    0.991     6 H    0.877
     5   1 H    0.969 --     8 N    0.953
     6   1 H    0.898 --     4 O    0.877
     7   6 C    3.929 --     8 N    1.033     4 O    0.991     9 H    0.945
                             1 O    0.937
     8   7 N    3.028 --     7 C    1.033     5 H    0.953     2 H    0.952
     9   1 H    1.000 --     7 C    0.945
    10   6 C    3.926 --    11 N    1.022     1 O    0.974    13 O    0.947
                            12 H    0.939
    11   7 N    3.020 --    10 C    1.022    15 H    0.956     3 H    0.951
    12   1 H    0.999 --    10 C    0.939
    13   8 O    2.284 --    16 C    1.091    10 C    0.947    17 N    0.128
    14   1 H    0.975 --    17 N    0.948
    15   1 H    0.970 --    11 N    0.956
    16   6 C    3.923 --    17 N    1.871    13 O    1.091    18 H    0.932
    17   7 N    3.014 --    16 C    1.871    14 H    0.948    13 O    0.128
    18   1 H    1.000 --    16 C    0.932
 ---------------------------------------------------------------------------

Topologies differ in total number of bonds
Writing topology from bond orders to xtbtopo.mol

molecular dipole:
                 x           y           z       tot (Debye)
 q only:       -0.027       0.662       0.511
   full:       -0.062       1.206       0.594       3.420
molecular quadrupole (traceless):
                xx          xy          yy          xz          yz          zz
 q only:        4.400       7.098      -4.151       2.213      -2.711      -0.248
  q+dip:        5.056      12.453      -5.867       2.188      -5.613       0.810
   full:        5.310      12.056      -6.646       2.801      -6.190       1.336

           -------------------------------------------------
          |                Geometry Summary                 |
           -------------------------------------------------

      molecular mass/u    :      135.1219988
   center of mass at/Å    :        2.5650123       0.3141779      -2.0233004
  moments of inertia/u·Å² :        0.2044527E+03   0.4891364E+03   0.5853626E+03
rotational constants/cm⁻¹ :        0.8245248E-01   0.3446407E-01   0.2879861E-01

 * 16 selected distances

     #   Z          #   Z                                           value/Å
     4   8 O        6   1 H                                       0.9636590 (min)
     1   8 O        7   6 C                                       1.4133108
     4   8 O        7   6 C                                       1.3907073
     2   1 H        8   7 N                                       1.0152424
     5   1 H        8   7 N                                       1.0117445
     7   6 C        8   7 N                                       1.4284790
     7   6 C        9   1 H                                       1.1069762
     1   8 O       10   6 C                                       1.3944649
     3   1 H       11   7 N                                       1.0108939
    10   6 C       11   7 N                                       1.4334398 (max)
    10   6 C       12   1 H                                       1.1078479
    10   6 C       13   8 O                                       1.4081897
    11   7 N       15   1 H                                       1.0116402
    13   8 O       16   6 C                                       1.3452256
    16   6 C       17   7 N                                       1.2527655
    16   6 C       18   1 H                                       1.1000781

 * 5 distinct bonds (by element types)

   Z      Z             #   av. dist./Å        max./Å        min./Å
   1 H    6 C           3     1.1049674     1.1078479     1.1000781
   1 H    7 N           4     1.0123803     1.0152424     1.0108939
   6 C    7 N           3     1.3715614     1.4334398     1.2527655
   1 H    8 O           1     0.9636590     0.9636590     0.9636590
   6 C    8 O           5     1.3903797     1.4133108     1.3452256

           -------------------------------------------------
          |               Frequency Printout                |
           -------------------------------------------------
 projected vibrational frequencies (cm⁻¹)
eigval :       -0.00    -0.00    -0.00     0.00     0.00     0.00
eigval :       46.78    53.44   106.88   124.04   162.39   168.37
eigval :      187.59   217.44   261.73   332.91   414.22   450.77
eigval :      479.50   521.94   580.20   711.66   780.68   874.91
eigval :      922.88   942.07   961.48   971.43   991.34  1048.62
eigval :     1077.38  1102.39  1139.78  1161.71  1190.01  1232.88
eigval :     1237.14  1289.76  1311.12  1337.15  1353.20  1358.23
eigval :     1500.41  1534.36  1734.72  2803.95  2821.11  2834.85
eigval :     3389.17  3402.67  3432.58  3453.52  3473.57  3546.68
 reduced masses (amu)
   1: 13.08   2: 13.07   3: 12.95   4: 13.49   5: 12.37   6: 12.91   7: 11.67   8: 12.82
   9:  6.35  10: 11.75  11:  5.49  12:  6.63  13:  8.47  14: 11.82  15:  2.18  16: 12.06
  17: 12.51  18: 12.62  19: 11.18  20: 11.93  21: 11.38  22: 10.56  23:  4.44  24:  7.88
  25:  7.47  26:  9.65  27:  8.75  28:  4.15  29: 11.04  30:  7.37  31: 10.10  32: 11.29
  33:  9.49  34:  6.74  35:  7.05  36:  6.00  37:  5.72  38:  2.60  39:  3.15  40:  4.48
  41:  3.58  42:  3.95  43:  2.42  44:  2.27  45: 12.40  46:  1.68  47:  1.69  48:  1.73
  49:  1.88  50:  1.62  51:  1.52  52:  1.97  53:  2.09  54:  1.87
 IR intensities (km·mol⁻¹)
   1:  0.20   2:  0.69   3:  0.04   4:  0.14   5:  1.84   6:  0.07   7:  1.45   8:  1.15
   9:  1.50  10:  5.80  11:112.11  12: 61.09  13: 54.75  14: 13.83  15: 74.54  16: 20.25
  17:  5.31  18:  3.21  19: 28.61  20: 17.39  21: 11.54  22: 60.81  23: 11.39  24: 44.34
  25:143.04  26: 28.01  27: 47.96  28:  9.87  29:188.28  30:158.03  31:208.07  32:462.15
  33: 49.32  34:183.69  35:170.30  36:133.96  37:149.62  38: 52.42  39:  8.62  40: 52.64
  41: 15.22  42: 90.81  43: 59.20  44: 64.23  45:322.80  46: 49.69  47: 68.94  48:115.45
  49:  3.89  50:  1.81  51:  2.73  52:  0.22  53:  0.69  54: 23.76
 Raman intensities (Ä⁴*amu⁻¹)
   1:  0.00   2:  0.00   3:  0.00   4:  0.00   5:  0.00   6:  0.00   7:  0.00   8:  0.00
   9:  0.00  10:  0.00  11:  0.00  12:  0.00  13:  0.00  14:  0.00  15:  0.00  16:  0.00
  17:  0.00  18:  0.00  19:  0.00  20:  0.00  21:  0.00  22:  0.00  23:  0.00  24:  0.00
  25:  0.00  26:  0.00  27:  0.00  28:  0.00  29:  0.00  30:  0.00  31:  0.00  32:  0.00
  33:  0.00  34:  0.00  35:  0.00  36:  0.00  37:  0.00  38:  0.00  39:  0.00  40:  0.00
  41:  0.00  42:  0.00  43:  0.00  44:  0.00  45:  0.00  46:  0.00  47:  0.00  48:  0.00
  49:  0.00  50:  0.00  51:  0.00  52:  0.00  53:  0.00  54:  0.00
 output can be read by thermo (or use thermo option).
 writing <g98.out> molden fake output.
 recommended (thermochemical) frequency scaling factor: 1.0
           -------------------------------------------------
          |             Thermodynamic Functions             |
           -------------------------------------------------

Refinement of some symmetry elements was terminated before convergence was reached.
Some symmetry elements may remain unidentified.
Molecule has no symmetry elements
It seems to be the C1 point group
c1  symmetry found (for desy threshold:  0.10E+00) used in thermo

          ...................................................
          :                      SETUP                      :
          :.................................................:
          :  # frequencies                          48      :
          :  # imaginary freq.                       0      :
          :  linear?                             false      :
          :  only rotor calc.                    false      :
          :  symmetry                               c1      :
          :  rotational number                       1      :
          :  scaling factor                  1.0000000      :
          :  rotor cutoff                   50.0000000 cm⁻¹ :
          :  imag. cutoff                  -20.0000000 cm⁻¹ :
          :.................................................:

    mode    ω/cm⁻¹     T·S(HO)/kcal·mol⁻¹    T·S(FR)/kcal·mol⁻¹   T·S(vib)
   ------------------------------------------------------------------------
       1     46.78    -1.47551 ( 43.39%)    -1.07599 ( 56.61%)    -1.24935
       2     53.44    -1.39710 ( 56.61%)    -1.03663 ( 43.39%)    -1.24070
       3    106.88    -0.99129 ( 95.43%)    -0.83139 (  4.57%)    -0.98398
       4    124.04    -0.90529 ( 97.43%)    -0.78729 (  2.57%)    -0.90226
       5    162.39    -0.75188 ( 99.11%)    -0.70752 (  0.89%)    -0.75149
       6    168.37    -0.73153 ( 99.23%)    -0.69680 (  0.77%)    -0.73126
       7    187.59    -0.67128 ( 99.50%)    -0.66478 (  0.50%)    -0.67125
       8    217.44    -0.59043 ( 99.72%)    -0.62105 (  0.28%)    -0.59051
       9    261.73    -0.49200 ( 99.87%)    -0.56613 (  0.13%)    -0.49210
   ------------------------------------------------------------------------

   temp. (K)  partition function   enthalpy   heat capacity  entropy
                                   cal/mol     cal/K/mol   cal/K/mol   J/K/mol
 298.15  VIB  0.353E+04             5119.125     30.884     32.086
         ROT  0.584E+06              888.752      2.981     29.369
         INT  0.206E+10             6007.877     33.865     61.455
         TR   0.152E+28             1481.254      4.968     40.597
         TOT                        7489.1312    38.8332   102.0514   426.9831

       T/K    H(0)-H(T)+PV         H(T)/Eh          T*S/Eh         G(T)/Eh
   ------------------------------------------------------------------------
    298.15    0.119347E-01    0.150975E+00    0.484879E-01    0.102487E+00
   ------------------------------------------------------------------------

         :::::::::::::::::::::::::::::::::::::::::::::::::::::
         ::                  THERMODYNAMIC                  ::
         :::::::::::::::::::::::::::::::::::::::::::::::::::::
         :: total free energy         -31.838388408596 Eh   ::
         ::.................................................::
         :: total energy              -31.940875494732 Eh   ::
         :: zero point energy           0.139040312002 Eh   ::
         :: G(RRHO) w/o ZPVE           -0.036553225865 Eh   ::
         :: G(RRHO) contrib.            0.102487086136 Eh   ::
         :::::::::::::::::::::::::::::::::::::::::::::::::::::

optimized geometry written to: xtbopt.xyz


           -------------------------------------------------
          | TOTAL ENERGY              -31.940875494732 Eh   |
          | TOTAL ENTHALPY            -31.789900492441 Eh   |
          | TOTAL FREE ENERGY         -31.838388408596 Eh   |
          | GRADIENT NORM               0.000017599593 Eh/α |
          | HOMO-LUMO GAP               4.309578434312 eV   |
           -------------------------------------------------

------------------------------------------------------------------------
 * finished run on 2025/01/10 at 14:24:59.216     
------------------------------------------------------------------------
 total:
 * wall-time:     0 d,  0 h,  0 min,  0.237 sec
 *  cpu-time:     0 d,  0 h,  0 min,  1.869 sec
 * ratio c/w:     7.898 speedup
 SCF:
 * wall-time:     0 d,  0 h,  0 min,  0.010 sec
 *  cpu-time:     0 d,  0 h,  0 min,  0.079 sec
 * ratio c/w:     7.543 speedup
 ANC optimizer:
 * wall-time:     0 d,  0 h,  0 min,  0.015 sec
 *  cpu-time:     0 d,  0 h,  0 min,  0.116 sec
 * ratio c/w:     7.978 speedup
 analytical hessian:
 * wall-time:     0 d,  0 h,  0 min,  0.196 sec
 *  cpu-time:     0 d,  0 h,  0 min,  1.562 sec
 * ratio c/w:     7.982 speedup

normal termination of xtb
