      -----------------------------------------------------------      
     |                   =====================                   |     
     |                           x T B                           |     
     |                   =====================                   |     
     |                         S. Grimme                         |     
     |          Mulliken Center for Theoretical Chemistry        |     
     |                    University of Bonn                     |     
      -----------------------------------------------------------      

   * xtb version 6.7.1 (edcfbbe) compiled by 'albert@albert-system' on 2024-07-22

   xtb is free software: you can redistribute it and/or modify it under
   the terms of the GNU Lesser General Public License as published by
   the Free Software Foundation, either version 3 of the License, or
   (at your option) any later version.
   
   xtb is distributed in the hope that it will be useful,
   but WITHOUT ANY WARRANTY; without even the implied warranty of
   MERCHANTABILITY or FITNESS FOR A PARTICULAR PURPOSE.  See the
   GNU Lesser General Public License for more details.
   
   Cite this work as:
   * C. Bannwarth, E. Caldeweyher, S. Ehlert, A. Hansen, P. Pracht,
     J. Seibert, S. Spicher, S. Grimme, WIREs Comput. Mol. Sci., 2020, 11,
     e01493. DOI: 10.1002/wcms.1493
   
   for GFN2-xTB:
   * C. Bannwarth, S. Ehlert and S. Grimme., J. Chem. Theory Comput., 2019,
     15, 1652-1671. DOI: 10.1021/acs.jctc.8b01176
   for GFN1-xTB:
   * S. Grimme, C. Bannwarth, P. Shushkov, J. Chem. Theory Comput., 2017,
     13, 1989-2009. DOI: 10.1021/acs.jctc.7b00118
   for GFN0-xTB:
   * P. Pracht, E. Caldeweyher, S. Ehlert, S. Grimme, ChemRxiv, 2019, preprint.
     DOI: 10.26434/chemrxiv.8326202.v1
   for GFN-FF:
   * S. Spicher and S. Grimme, Angew. Chem. Int. Ed., 2020, 59, 15665-15673.
     DOI: 10.1002/anie.202004239
   
   for ALPB and GBSA implicit solvation:
   * S. Ehlert, M. Stahn, S. Spicher, S. Grimme, J. Chem. Theory Comput.,
     2021, 17, 4250-4261. DOI: 10.1021/acs.jctc.1c00471
   
   for ddCOSMO and CPCM-X implicit solvation:
   * M. Stahn, S. Ehlert, S. Grimme, J. Phys. Chem. A,
     2023, XX, XXXX-XXXX. DOI: 10.1021/acs.jpca.3c04382
   
   for DFT-D4:
   * E. Caldeweyher, C. Bannwarth and S. Grimme, J. Chem. Phys., 2017,
     147, 034112. DOI: 10.1063/1.4993215
   * E. Caldeweyher, S. Ehlert, A. Hansen, H. Neugebauer, S. Spicher,
     C. Bannwarth and S. Grimme, J. Chem. Phys., 2019, 150, 154122.
     DOI: 10.1063/1.5090222
   * E. Caldeweyher, J.-M. Mewes, S. Ehlert and S. Grimme, Phys. Chem. Chem. Phys.
     2020, 22, 8499-8512. DOI: 10.1039/D0CP00502A
   
   for sTDA-xTB:
   * S. Grimme and C. Bannwarth, J. Chem. Phys., 2016, 145, 054103.
     DOI: 10.1063/1.4959605
   
   in the mass-spec context:
   * V. Asgeirsson, C. Bauer and S. Grimme, Chem. Sci., 2017, 8, 4879.
     DOI: 10.1039/c7sc00601b
   * J. Koopman and S. Grimme, ACS Omega 2019, 4, 12, 15120-15133.
     DOI: 10.1021/acsomega.9b02011
   
   for metadynamics refer to:
   * S. Grimme, J. Chem. Theory Comput., 2019, 155, 2847-2862
     DOI: 10.1021/acs.jctc.9b00143
   
   for SPH calculations refer to:
   * S. Spicher and S. Grimme, J. Chem. Theory Comput., 2021, 17, 1701-1714
     DOI: 10.1021/acs.jctc.0c01306
   
   for ONIOM refer to:
   * C. Plett, A. Katbashev, S. Ehlert, S. Grimme, M. Bursch,
     Phys. Chem. Chem. Phys., 2023, 25, 17860-17868. DOI: 10.1039/D3CP02178E
   
   for DIPRO refer to:
   * J. Kohn, N. Gildemeister, S. Grimme, D. Fazzi, A. Hansen,
     J. Chem. Phys., 2023, just accepted.
   
   for PTB refer to:
   * S. Grimme, M. Mueller, A. Hansen, J. Chem. Phys., 2023, 158, 124111.
     DOI: 10.1063/5.0137838
   
   with help from (in alphabetical order)
   P. Atkinson, C. Bannwarth, F. Bohle, G. Brandenburg, E. Caldeweyher
   M. Checinski, S. Dohm, S. Ehlert, S. Ehrlich, I. Gerasimov, C. Hölzer
   A. Katbashev, J. Kohn, J. Koopman, C. Lavigne, S. Lehtola, F. März, M. Müller,
   F. Musil, H. Neugebauer, J. Pisarek, C. Plett, P. Pracht, F. Pultar,
   J. Seibert, P. Shushkov, S. Spicher, M. Stahn, M. Steiner, T. Strunk,
   J. Stückrath, T. Rose, and J. Unsleber
   
 * started run on 2025/01/10 at 14:26:49.530     
   ID    Z sym.   atoms
    1    8 O      1, 2, 6
    2    1 H      3, 5, 8, 10, 11, 14
    3    6 C      4, 7, 12
    4    7 N      9, 13

           -------------------------------------------------
          |                Calculation Setup                |
           -------------------------------------------------

          program call               : /home/adpal/xtb-dist/bin/xtb ./results/p_{0,63}_coordinatesxTB.xyz --ohess --uhf 1 --parallel 8
          coordinate file            : ./results/p_{0,63}_coordinatesxTB.xyz
          omp threads                :                     8


           -------------------------------------------------
          |                 G F N 2 - x T B                 |
           -------------------------------------------------

        Reference                      10.1021/acs.jctc.8b01176
      * Hamiltonian:
        H0-scaling (s, p, d)           1.850000    2.230000    2.230000
        zeta-weighting                 0.500000
      * Dispersion:
        s8                             2.700000
        a1                             0.520000
        a2                             5.000000
        s9                             5.000000
      * Repulsion:
        kExp                           1.500000    1.000000
        rExp                           1.000000
      * Coulomb:
        alpha                          2.000000
        third order                    shell-resolved
        anisotropic                    true
        a3                             3.000000
        a5                             4.000000
        cn-shift                       1.200000
        cn-exp                         4.000000
        max-rad                        5.000000

q/qsh data taken from xtbrestart
CAMM data taken from xtbrestart

          ...................................................
          :                      SETUP                      :
          :.................................................:
          :  # basis functions                  38          :
          :  # atomic orbitals                  38          :
          :  # shells                           22          :
          :  # electrons                        46          :
          :  max. iterations                   250          :
          :  Hamiltonian                  GFN2-xTB          :
          :  restarted?                       true          :
          :  GBSA solvation                  false          :
          :  PC potential                    false          :
          :  electronic temp.          300.0000000     K    :
          :  accuracy                    1.0000000          :
          :  -> integral cutoff          0.2500000E+02      :
          :  -> integral neglect         0.1000000E-07      :
          :  -> SCF convergence          0.1000000E-05 Eh   :
          :  -> wf. convergence          0.1000000E-03 e    :
          :  Broyden damping             0.4000000          :
          :  net charge                          0          :
          :  unpaired electrons                  1          :
          ...................................................

 iter      E             dE          RMSdq      gap      omega  full diag
   1    -27.7742835 -0.277743E+02  0.242E-06    3.75       0.0  T
   2    -27.7742835  0.000000E+00  0.141E-06    3.75   19021.3  T
   3    -27.7742835 -0.319744E-13  0.782E-07    3.75   34197.4  T

   *** convergence criteria satisfied after 3 iterations ***

         #    Occupation            Energy/Eh            Energy/eV
      -------------------------------------------------------------
         1        2.0000           -0.7643267             -20.7984
       ...           ...                  ...                  ...
        17        2.0000           -0.5009684             -13.6320
        18        2.0000           -0.4920054             -13.3881
        19        2.0000           -0.4726149             -12.8605
        20        2.0000           -0.4631693             -12.6035
        21        2.0000           -0.4367686             -11.8851
        22        2.0000           -0.4064689             -11.0606
        23        2.0000           -0.3930117             -10.6944 (HOMO)
        24                         -0.2550754              -6.9410 (LUMO)
        25                         -0.2237305              -6.0880
        26                         -0.0130225              -0.3544
        27                          0.0159640               0.4344
        28                          0.0857484               2.3333
       ...                                ...                  ...
        38                          0.6282625              17.0959
      -------------------------------------------------------------
                  HL-Gap            0.1379363 Eh            3.7534 eV
             Fermi-level           -0.3240435 Eh           -8.8177 eV

 SCC (total)                   0 d,  0 h,  0 min,  0.008 sec
 SCC setup                      ...        0 min,  0.000 sec (  2.383%)
 Dispersion                     ...        0 min,  0.000 sec (  1.048%)
 classical contributions        ...        0 min,  0.000 sec (  0.213%)
 integral evaluation            ...        0 min,  0.001 sec (  6.338%)
 iterations                     ...        0 min,  0.006 sec ( 74.823%)
 molecular gradient             ...        0 min,  0.001 sec ( 12.756%)
 printout                       ...        0 min,  0.000 sec (  2.204%)

         :::::::::::::::::::::::::::::::::::::::::::::::::::::
         ::                     SUMMARY                     ::
         :::::::::::::::::::::::::::::::::::::::::::::::::::::
         :: total energy             -27.521080610736 Eh    ::
         :: gradient norm              0.000030751550 Eh/a0 ::
         :: HOMO-LUMO gap              3.753437698180 eV    ::
         ::.................................................::
         :: SCC energy               -27.774259028818 Eh    ::
         :: -> isotropic ES            0.084496038756 Eh    ::
         :: -> anisotropic ES         -0.003432714816 Eh    ::
         :: -> anisotropic XC          0.004893749529 Eh    ::
         :: -> dispersion             -0.009340593095 Eh    ::
         :: repulsion energy           0.253178418081 Eh    ::
         :: add. restraining           0.000000000000 Eh    ::
         :: total charge              -0.000000000000 e     ::
         :::::::::::::::::::::::::::::::::::::::::::::::::::::

      ----------------------------------------------------------- 
     |                   =====================                   |
     |                        A N C O P T                        |
     |                   =====================                   |
     |               Approximate Normal Coordinate               |
     |                Rational Function Optimizer                |
      ----------------------------------------------------------- 
      ----------------------------------------------------------- 
     |                   =====================                   |
     |                        A N C O P T                        |
     |                   =====================                   |
     |               Approximate Normal Coordinate               |
     |                Rational Function Optimizer                |
      ----------------------------------------------------------- 

          ...................................................
          :                      SETUP                      :
          :.................................................:
          :   optimization level            normal          :
          :   max. optcycles                   200          :
          :   ANC micro-cycles                  20          :
          :   degrees of freedom                36          :
          :.................................................:
          :   RF solver                   davidson          :
          :   write xtbopt.log                true          :
          :   linear?                        false          :
          :   energy convergence         0.5000000E-05 Eh   :
          :   grad. convergence          0.1000000E-02 Eh/α :
          :   maxmium RF displ.          1.0000000          :
          :   Hlow (freq-cutoff)         0.1000000E-01      :
          :   Hmax (freq-cutoff)         5.0000000          :
          :   S6 in model hess.         20.0000000          :
          ...................................................

generating ANC from exact Hessian ...
Using Lindh-Hessian (1995)
 Shifting diagonal of input Hessian by   5.573876584231362E-003
 Lowest  eigenvalues of input Hessian
    0.000000    0.000000    0.000000    0.000000    0.000000    0.000000
    0.010000    0.011281    0.019679    0.021857    0.024588    0.027013
    0.033126    0.040209    0.061470    0.065426    0.085457    0.109781
 Highest eigenvalues
    1.549528    1.666761    1.802047    1.939224    2.350055    2.471002
 

........................................................................
.............................. CYCLE    1 ..............................
........................................................................

 iter      E             dE          RMSdq      gap      omega  full diag
   1    -27.7742835 -0.277743E+02  0.232E-07    3.75       0.0  T
   2    -27.7742835  0.355271E-13  0.148E-07    3.75  100000.0  T
   3    -27.7742835 -0.142109E-13  0.907E-08    3.75  100000.0  T
     SCC iter.                  ...        0 min,  0.001 sec
     gradient                   ...        0 min,  0.001 sec
 * total energy  :   -27.5210806 Eh     change        0.3552714E-13 Eh
   gradient norm :     0.0000308 Eh/α   predicted     0.0000000E+00 (-100.00%)
   displ. norm   :     0.0003356 α      lambda        0.9837087E-09
   maximum displ.:     0.0002170 α      in ANC's #3, #2, #6, ...

   *** GEOMETRY OPTIMIZATION CONVERGED AFTER 1 ITERATIONS ***

------------------------------------------------------------------------
 total energy gain   :         0.0000000 Eh        0.0000 kcal/mol
 total RMSD          :         0.0000000 a0        0.0000 Å
 total power (kW/mol):         0.0000000 (step)    0.0000 (real)
------------------------------------------------------------------------

 ANCopt (total)                0 d,  0 h,  0 min,  0.005 sec
 optimizer setup                ...        0 min,  0.000 sec (  1.793%)
 model hessian                  ...        0 min,  0.002 sec ( 34.227%)
 ANC generation                 ...        0 min,  0.000 sec (  3.857%)
 coordinate transformation      ...        0 min,  0.000 sec (  0.193%)
 single point calculation       ...        0 min,  0.003 sec ( 51.269%)
 optimization log               ...        0 min,  0.000 sec (  3.931%)
 hessian update                 ...        0 min,  0.000 sec (  0.037%)
 rational function              ...        0 min,  0.000 sec (  2.735%)

================
 final structure:
================
14
 xtb: 6.7.1 (edcfbbe)
O            2.53610000474645        0.31102292272036        1.84063349932463
O            0.41521152316435        0.14038502331277        1.11293392075159
H            4.85889734725064       -0.79658960639593        1.44417741087975
C            1.25300784191166        0.53784304098046        1.87926256840937
H            1.01989890612865        1.18195478658485        2.74395095532256
O            4.05508544704553       -1.33458204268789        1.43556898495439
C            3.07489563930437       -0.60941914316769        0.82554835317170
H            2.26376938484634       -1.30899225228646        0.56223594142868
N            1.59331404579320        0.45237767062140       -1.44068155976331
H            1.17506913676125        0.88236588365350       -2.24583581891673
H            0.97254701809187        0.13225349701554       -0.70537221000689
C            2.91470314083803        0.55015455841920       -1.23184768114181
N            3.61647930854187        0.12343188696130       -0.26024522847030
H            3.47525125557511        1.04506377426809       -2.01853913594370
 
 Bond Distances (Angstroems)
 ---------------------------
O1-C4=1.3036         O1-C7=1.4724         O2-C4=1.2030         H3-O6=0.9673         C4-O1=1.3036         C4-O2=1.2030         
C4-H5=1.1031         H5-C4=1.1031         O6-H3=0.9673         O6-C7=1.3634         C7-O1=1.4724         C7-O6=1.3634         
C7-H8=1.1030         C7-N13=1.4175        H8-C7=1.1030         N9-H10=1.0040        N9-H11=1.0142        N9-C12=1.3414        
H10-N9=1.0040        H11-N9=1.0142        C12-N9=1.3414        C12-N13=1.2722       C12-H14=1.0854       N13-C7=1.4175        
N13-C12=1.2722       H14-C12=1.0854       
 C  H  Rav=1.0972 sigma=0.0083  Rmin=1.0854  Rmax=1.1031     3
 N  H  Rav=1.0091 sigma=0.0051  Rmin=1.0040  Rmax=1.0142     2
 N  C  Rav=1.3437 sigma=0.0593  Rmin=1.2722  Rmax=1.4175     3
 O  H  Rav=0.9673 sigma=0.0000  Rmin=0.9673  Rmax=0.9673     1
 O  C  Rav=1.3356 sigma=0.0976  Rmin=1.2030  Rmax=1.4724     4
 
 selected bond angles (degree)
 --------------------
C7-O1-C4=119.30                O2-C4-O1=127.53                H5-C4-O1=109.44                H5-C4-O2=123.03                
C7-O6-H3=107.79                O6-C7-O1=106.69                H8-C7-O1=106.98                H8-C7-O6=107.35                
N13-C7-O1=110.16               N13-C7-O6=110.06               N13-C7-H8=115.21               H11-N9-H10=117.49              
C12-N9-H10=120.26              C12-N9-H11=120.87              
 
 selected dihedral angles (degree)
 ---------------------------------
O2-C4-O1-C7=355.01            H5-C4-O1-C7=175.54            O6-C7-O1-C4=219.30            H8-C7-O1-C4=333.94            
N13-C7-O1-C4= 99.86           O1-C7-O6-H3=278.67            H8-C7-O6-H3=164.28            N13-C7-O6-H3= 38.18           
           -------------------------------------------------
          |                Final Singlepoint                |
           -------------------------------------------------

          ...................................................
          :                      SETUP                      :
          :.................................................:
          :  # basis functions                  38          :
          :  # atomic orbitals                  38          :
          :  # shells                           22          :
          :  # electrons                        46          :
          :  max. iterations                   250          :
          :  Hamiltonian                  GFN2-xTB          :
          :  restarted?                      false          :
          :  GBSA solvation                  false          :
          :  PC potential                    false          :
          :  electronic temp.          300.0000000     K    :
          :  accuracy                    1.0000000          :
          :  -> integral cutoff          0.2500000E+02      :
          :  -> integral neglect         0.1000000E-07      :
          :  -> SCF convergence          0.1000000E-05 Eh   :
          :  -> wf. convergence          0.1000000E-03 e    :
          :  Broyden damping             0.4000000          :
          :  net charge                          0          :
          :  unpaired electrons                  1          :
          ...................................................

 iter      E             dE          RMSdq      gap      omega  full diag
   1    -27.7742835 -0.277743E+02  0.253E-08    3.75       0.0  T
   2    -27.7742835  0.284217E-13  0.150E-08    3.75  100000.0  T
   3    -27.7742835 -0.355271E-14  0.812E-09    3.75  100000.0  T

   *** convergence criteria satisfied after 3 iterations ***

         #    Occupation            Energy/Eh            Energy/eV
      -------------------------------------------------------------
         1        2.0000           -0.7643267             -20.7984
       ...           ...                  ...                  ...
        17        2.0000           -0.5009684             -13.6320
        18        2.0000           -0.4920054             -13.3881
        19        2.0000           -0.4726149             -12.8605
        20        2.0000           -0.4631693             -12.6035
        21        2.0000           -0.4367686             -11.8851
        22        2.0000           -0.4064689             -11.0606
        23        2.0000           -0.3930117             -10.6944 (HOMO)
        24                         -0.2550754              -6.9410 (LUMO)
        25                         -0.2237305              -6.0880
        26                         -0.0130225              -0.3544
        27                          0.0159640               0.4344
        28                          0.0857484               2.3333
       ...                                ...                  ...
        38                          0.6282625              17.0959
      -------------------------------------------------------------
                  HL-Gap            0.1379363 Eh            3.7534 eV
             Fermi-level           -0.3240435 Eh           -8.8177 eV

 SCC (total)                   0 d,  0 h,  0 min,  0.003 sec
 SCC setup                      ...        0 min,  0.000 sec (  3.799%)
 Dispersion                     ...        0 min,  0.000 sec (  1.363%)
 classical contributions        ...        0 min,  0.000 sec (  0.369%)
 integral evaluation            ...        0 min,  0.000 sec ( 16.860%)
 iterations                     ...        0 min,  0.001 sec ( 34.749%)
 molecular gradient             ...        0 min,  0.001 sec ( 37.221%)
 printout                       ...        0 min,  0.000 sec (  4.908%)

         :::::::::::::::::::::::::::::::::::::::::::::::::::::
         ::                     SUMMARY                     ::
         :::::::::::::::::::::::::::::::::::::::::::::::::::::
         :: total energy             -27.521080610736 Eh    ::
         :: gradient norm              0.000030758755 Eh/a0 ::
         :: HOMO-LUMO gap              3.753437639622 eV    ::
         ::.................................................::
         :: SCC energy               -27.774259028817 Eh    ::
         :: -> isotropic ES            0.084496030730 Eh    ::
         :: -> anisotropic ES         -0.003432714740 Eh    ::
         :: -> anisotropic XC          0.004893749787 Eh    ::
         :: -> dispersion             -0.009340593067 Eh    ::
         :: repulsion energy           0.253178418081 Eh    ::
         :: add. restraining           0.000000000000 Eh    ::
         :: total charge               0.000000000000 e     ::
         :::::::::::::::::::::::::::::::::::::::::::::::::::::

           ------------------------------------------------- 
          |                Numerical Hessian                |
           ------------------------------------------------- 
step length          :   0.00500
SCC accuracy         :   0.30000
Hessian scale factor :   1.00000
frozen atoms in %    :   0.00000    0
RMS gradient         :   0.00003
estimated CPU  time      0.04 min
estimated wall time      0.00 min

writing file <hessian>.

 projected vibrational frequencies (cm⁻¹)
eigval :       -0.00    -0.00    -0.00     0.00     0.00     0.00
eigval :       71.97   141.48   195.53   213.21   259.68   299.97
eigval :      341.48   429.59   476.60   488.46   555.96   621.26
eigval :      667.51   719.79   842.74   932.75   936.35   991.77
eigval :     1052.95  1146.25  1206.85  1226.13  1256.90  1274.39
eigval :     1325.11  1347.66  1355.65  1474.12  1711.10  1768.54
eigval :     2829.92  2846.37  3018.14  3349.20  3497.76  3523.79
           -------------------------------------------------
          |                Property Printout                |
           -------------------------------------------------

    * Orbital Energies and Occupations

         #    Occupation            Energy/Eh            Energy/eV
      -------------------------------------------------------------
         1        2.0000           -0.7643267             -20.7984
       ...           ...                  ...                  ...
        11        2.0000           -0.5868778             -15.9698
        12        2.0000           -0.5741952             -15.6246
        13        2.0000           -0.5683050             -15.4644
        14        2.0000           -0.5445121             -14.8169
        15        2.0000           -0.5283883             -14.3782
        16        2.0000           -0.5179264             -14.0935
        17        2.0000           -0.5009684             -13.6320
        18        2.0000           -0.4920054             -13.3881
        19        2.0000           -0.4726149             -12.8605
        20        2.0000           -0.4631693             -12.6035
        21        2.0000           -0.4367686             -11.8851
        22        2.0000           -0.4064689             -11.0606
        23        2.0000           -0.3930117             -10.6944 (HOMO)
        24                         -0.2550754              -6.9410 (LUMO)
        25                         -0.2237305              -6.0880
        26                         -0.0130225              -0.3544
        27                          0.0159640               0.4344
        28                          0.0857484               2.3333
        29                          0.0939388               2.5562
        30                          0.1309614               3.5636
        31                          0.1539248               4.1885
        32                          0.1603658               4.3638
        33                          0.2318606               6.3092
        34                          0.2644348               7.1956
       ...                                ...                  ...
        38                          0.6282625              17.0959
      -------------------------------------------------------------
                  HL-Gap            0.1379363 Eh            3.7534 eV
             Fermi-level           -0.3240435 Eh           -8.8177 eV

     #   Z          covCN         q      C6AA      α(0)
     1   8 O        1.696    -0.267    18.432     5.796
     2   8 O        0.856    -0.402    21.713     6.247
     3   1 H        0.805     0.331     0.635     1.252
     4   6 C        2.650     0.346    21.120     7.518
     5   1 H        0.923     0.040     2.443     2.444
     6   8 O        1.659    -0.411    21.056     6.194
     7   6 C        3.568     0.323    16.443     5.902
     8   1 H        0.923     0.035     2.518     2.482
     9   7 N        2.635    -0.256    26.647     7.667
    10   1 H        0.860     0.181     1.209     1.723
    11   1 H        0.860     0.215     1.031     1.590
    12   6 C        2.771     0.146    24.816     8.159
    13   7 N        1.825    -0.337    29.604     8.062
    14   1 H        0.925     0.055     2.262     2.352

 Mol. C6AA /au·bohr⁶  :       2044.307811
 Mol. C8AA /au·bohr⁸  :      43967.888545
 Mol. α(0) /au        :         67.389146


Wiberg/Mayer (AO) data.
largest (>0.10) Wiberg bond orders for each atom

 ---------------------------------------------------------------------------
     #   Z sym  total        # sym  WBO       # sym  WBO       # sym  WBO
 ---------------------------------------------------------------------------
     1   8 O    2.353 --     4 C    1.228     7 C    0.835     2 O    0.197
     2   8 O    2.054 --     4 C    1.740     1 O    0.197
     3   1 H    0.891 --     6 O    0.869
     4   6 C    3.916 --     2 O    1.740     1 O    1.228     5 H    0.913
     5   1 H    0.998 --     4 C    0.913
     6   8 O    2.027 --     7 C    1.048     3 H    0.869
     7   6 C    3.913 --     6 O    1.048    13 N    1.027     8 H    0.939
                             1 O    0.835
     8   1 H    0.999 --     7 C    0.939
     9   7 N    3.403 --    12 C    1.298    10 H    0.951    11 H    0.901
                            13 N    0.207
    10   1 H    0.967 --     9 N    0.951
    11   1 H    0.954 --     9 N    0.901
    12   6 C    3.968 --    13 N    1.678     9 N    1.298    14 H    0.948
    13   7 N    3.018 --    12 C    1.678     7 C    1.027     9 N    0.207
    14   1 H    0.997 --    12 C    0.948
 ---------------------------------------------------------------------------

Topologies differ in total number of bonds
Writing topology from bond orders to xtbtopo.mol

molecular dipole:
                 x           y           z       tot (Debye)
 q only:        0.104       0.576      -0.744
   full:       -0.253       0.837      -0.725       2.887
molecular quadrupole (traceless):
                xx          xy          yy          xz          yz          zz
 q only:       -0.575       3.180      -2.760      -1.798       0.368       3.335
  q+dip:       -6.293       6.154      -1.217      -2.080       0.657       7.510
   full:       -6.619       5.716      -0.585      -2.168       0.453       7.204

           -------------------------------------------------
          |                Geometry Summary                 |
           -------------------------------------------------

      molecular mass/u    :      118.0914734
   center of mass at/Å    :        2.4212946       0.0070005       0.5408388
  moments of inertia/u·Å² :        0.2148917E+03   0.2237468E+03   0.3930467E+03
rotational constants/cm⁻¹ :        0.7844712E-01   0.7534244E-01   0.4288964E-01

 * 12 selected distances

     #   Z          #   Z                                           value/Å
     1   8 O        4   6 C                                       1.3035587
     2   8 O        4   6 C                                       1.2029694
     4   6 C        5   1 H                                       1.1031346
     3   1 H        6   8 O                                       0.9672764 (min)
     6   8 O        7   6 C                                       1.3633631
     7   6 C        8   1 H                                       1.1030240
     9   7 N       10   1 H                                       1.0040380
     9   7 N       11   1 H                                       1.0141554
     9   7 N       12   6 C                                       1.3413580
     7   6 C       13   7 N                                       1.4175089 (max)
    12   6 C       13   7 N                                       1.2722396
    12   6 C       14   1 H                                       1.0853723

 * 5 distinct bonds (by element types)

   Z      Z             #   av. dist./Å        max./Å        min./Å
   1 H    6 C           3     1.0971770     1.1031346     1.0853723
   1 H    7 N           2     1.0090967     1.0141554     1.0040380
   6 C    7 N           3     1.3437022     1.4175089     1.2722396
   1 H    8 O           1     0.9672764     0.9672764     0.9672764
   6 C    8 O           3     1.2899637     1.3633631     1.2029694

           -------------------------------------------------
          |               Frequency Printout                |
           -------------------------------------------------
 projected vibrational frequencies (cm⁻¹)
eigval :       -0.00    -0.00    -0.00     0.00     0.00     0.00
eigval :       71.97   141.48   195.53   213.21   259.68   299.97
eigval :      341.48   429.59   476.60   488.46   555.96   621.26
eigval :      667.51   719.79   842.74   932.75   936.35   991.77
eigval :     1052.95  1146.25  1206.85  1226.13  1256.90  1274.39
eigval :     1325.11  1347.66  1355.65  1474.12  1711.10  1768.54
eigval :     2829.92  2846.37  3018.14  3349.20  3497.76  3523.79
 reduced masses (amu)
   1: 13.51   2: 13.83   3: 13.36   4: 13.07   5: 13.56   6: 12.76   7: 14.21   8: 13.93
   9: 10.77  10: 13.10  11: 11.44  12:  9.51  13:  4.71  14:  4.74  15: 12.70  16:  9.59
  17: 10.30  18:  5.48  19:  9.75  20: 12.68  21: 12.97  22:  5.78  23:  4.20  24: 10.20
  25:  5.82  26: 10.00  27: 13.37  28:  5.87  29:  5.83  30:  6.16  31:  2.76  32:  4.02
  33:  3.79  34:  3.95  35: 12.65  36: 13.21  37:  1.73  38:  1.71  39:  1.77  40:  1.70
  41:  1.86  42:  1.96
 IR intensities (km·mol⁻¹)
   1:  0.28   2:  0.11   3:  0.41   4:  1.11   5:  0.51   6:  0.27   7:  3.51   8:  1.41
   9:  4.06  10:  5.35  11: 22.96  12: 55.50  13: 24.73  14:225.34  15: 42.78  16: 39.77
  17: 27.47  18: 80.80  19: 15.97  20: 30.77  21:252.28  22: 24.60  23: 57.33  24: 91.84
  25: 37.99  26:243.12  27:110.57  28: 14.52  29: 60.35  30: 29.87  31: 43.07  32:106.95
  33: 53.06  34: 50.05  35:180.12  36:797.47  37: 84.74  38: 46.50  39: 38.58  40:140.50
  41: 39.95  42: 24.11
 Raman intensities (Ä⁴*amu⁻¹)
   1:  0.00   2:  0.00   3:  0.00   4:  0.00   5:  0.00   6:  0.00   7:  0.00   8:  0.00
   9:  0.00  10:  0.00  11:  0.00  12:  0.00  13:  0.00  14:  0.00  15:  0.00  16:  0.00
  17:  0.00  18:  0.00  19:  0.00  20:  0.00  21:  0.00  22:  0.00  23:  0.00  24:  0.00
  25:  0.00  26:  0.00  27:  0.00  28:  0.00  29:  0.00  30:  0.00  31:  0.00  32:  0.00
  33:  0.00  34:  0.00  35:  0.00  36:  0.00  37:  0.00  38:  0.00  39:  0.00  40:  0.00
  41:  0.00  42:  0.00
 output can be read by thermo (or use thermo option).
 writing <g98.out> molden fake output.
 recommended (thermochemical) frequency scaling factor: 1.0
           -------------------------------------------------
          |             Thermodynamic Functions             |
           -------------------------------------------------

Refinement of some symmetry elements was terminated before convergence was reached.
Some symmetry elements may remain unidentified.
Molecule has no symmetry elements
It seems to be the C1 point group
c1  symmetry found (for desy threshold:  0.10E+00) used in thermo

          ...................................................
          :                      SETUP                      :
          :.................................................:
          :  # frequencies                          36      :
          :  # imaginary freq.                       0      :
          :  linear?                             false      :
          :  only rotor calc.                    false      :
          :  symmetry                               c1      :
          :  rotational number                       1      :
          :  scaling factor                  1.0000000      :
          :  rotor cutoff                   50.0000000 cm⁻¹ :
          :  imag. cutoff                  -20.0000000 cm⁻¹ :
          :.................................................:

    mode    ω/cm⁻¹     T·S(HO)/kcal·mol⁻¹    T·S(FR)/kcal·mol⁻¹   T·S(vib)
   ------------------------------------------------------------------------
       1     71.97    -1.22200 ( 81.11%)    -0.94838 ( 18.89%)    -1.17031
       2    141.48    -0.83000 ( 98.46%)    -0.74830 (  1.54%)    -0.82874
       3    195.53    -0.64839 ( 99.57%)    -0.65247 (  0.43%)    -0.64841
       4    213.21    -0.60106 ( 99.70%)    -0.62683 (  0.30%)    -0.60114
       5    259.68    -0.49610 ( 99.86%)    -0.56845 (  0.14%)    -0.49620
       6    299.97    -0.42249 ( 99.92%)    -0.52572 (  0.08%)    -0.42257
   ------------------------------------------------------------------------

   temp. (K)  partition function   enthalpy   heat capacity  entropy
                                   cal/mol     cal/K/mol   cal/K/mol   J/K/mol
 298.15  VIB   73.0                 3443.448     23.831     19.901
         ROT  0.332E+06              888.752      2.981     28.245
         INT  0.243E+08             4332.200     26.812     48.146
         TR   0.124E+28             1481.254      4.968     40.195
         TOT                        5813.4542    31.7803    88.3413   369.6201

       T/K    H(0)-H(T)+PV         H(T)/Eh          T*S/Eh         G(T)/Eh
   ------------------------------------------------------------------------
    298.15    0.926433E-02    0.110408E+00    0.419738E-01    0.684342E-01
   ------------------------------------------------------------------------

         :::::::::::::::::::::::::::::::::::::::::::::::::::::
         ::                  THERMODYNAMIC                  ::
         :::::::::::::::::::::::::::::::::::::::::::::::::::::
         :: total free energy         -27.452646385677 Eh   ::
         ::.................................................::
         :: total energy              -27.521080610736 Eh   ::
         :: zero point energy           0.101143707616 Eh   ::
         :: G(RRHO) w/o ZPVE           -0.032709482557 Eh   ::
         :: G(RRHO) contrib.            0.068434225059 Eh   ::
         :::::::::::::::::::::::::::::::::::::::::::::::::::::

optimized geometry written to: xtbopt.xyz


           -------------------------------------------------
          | TOTAL ENERGY              -27.521080610736 Eh   |
          | TOTAL ENTHALPY            -27.410672574177 Eh   |
          | TOTAL FREE ENERGY         -27.452646385677 Eh   |
          | GRADIENT NORM               0.000030759902 Eh/α |
          | HOMO-LUMO GAP               3.753437548650 eV   |
           -------------------------------------------------

------------------------------------------------------------------------
 * finished run on 2025/01/10 at 14:26:49.684     
------------------------------------------------------------------------
 total:
 * wall-time:     0 d,  0 h,  0 min,  0.153 sec
 *  cpu-time:     0 d,  0 h,  0 min,  1.187 sec
 * ratio c/w:     7.752 speedup
 SCF:
 * wall-time:     0 d,  0 h,  0 min,  0.009 sec
 *  cpu-time:     0 d,  0 h,  0 min,  0.065 sec
 * ratio c/w:     7.607 speedup
 ANC optimizer:
 * wall-time:     0 d,  0 h,  0 min,  0.009 sec
 *  cpu-time:     0 d,  0 h,  0 min,  0.071 sec
 * ratio c/w:     7.974 speedup
 analytical hessian:
 * wall-time:     0 d,  0 h,  0 min,  0.120 sec
 *  cpu-time:     0 d,  0 h,  0 min,  0.961 sec
 * ratio c/w:     7.996 speedup

normal termination of xtb
