      -----------------------------------------------------------      
     |                   =====================                   |     
     |                           x T B                           |     
     |                   =====================                   |     
     |                         S. Grimme                         |     
     |          Mulliken Center for Theoretical Chemistry        |     
     |                    University of Bonn                     |     
      -----------------------------------------------------------      

   * xtb version 6.7.1 (edcfbbe) compiled by 'albert@albert-system' on 2024-07-22

   xtb is free software: you can redistribute it and/or modify it under
   the terms of the GNU Lesser General Public License as published by
   the Free Software Foundation, either version 3 of the License, or
   (at your option) any later version.
   
   xtb is distributed in the hope that it will be useful,
   but WITHOUT ANY WARRANTY; without even the implied warranty of
   MERCHANTABILITY or FITNESS FOR A PARTICULAR PURPOSE.  See the
   GNU Lesser General Public License for more details.
   
   Cite this work as:
   * C. Bannwarth, E. Caldeweyher, S. Ehlert, A. Hansen, P. Pracht,
     J. Seibert, S. Spicher, S. Grimme, WIREs Comput. Mol. Sci., 2020, 11,
     e01493. DOI: 10.1002/wcms.1493
   
   for GFN2-xTB:
   * C. Bannwarth, S. Ehlert and S. Grimme., J. Chem. Theory Comput., 2019,
     15, 1652-1671. DOI: 10.1021/acs.jctc.8b01176
   for GFN1-xTB:
   * S. Grimme, C. Bannwarth, P. Shushkov, J. Chem. Theory Comput., 2017,
     13, 1989-2009. DOI: 10.1021/acs.jctc.7b00118
   for GFN0-xTB:
   * P. Pracht, E. Caldeweyher, S. Ehlert, S. Grimme, ChemRxiv, 2019, preprint.
     DOI: 10.26434/chemrxiv.8326202.v1
   for GFN-FF:
   * S. Spicher and S. Grimme, Angew. Chem. Int. Ed., 2020, 59, 15665-15673.
     DOI: 10.1002/anie.202004239
   
   for ALPB and GBSA implicit solvation:
   * S. Ehlert, M. Stahn, S. Spicher, S. Grimme, J. Chem. Theory Comput.,
     2021, 17, 4250-4261. DOI: 10.1021/acs.jctc.1c00471
   
   for ddCOSMO and CPCM-X implicit solvation:
   * M. Stahn, S. Ehlert, S. Grimme, J. Phys. Chem. A,
     2023, XX, XXXX-XXXX. DOI: 10.1021/acs.jpca.3c04382
   
   for DFT-D4:
   * E. Caldeweyher, C. Bannwarth and S. Grimme, J. Chem. Phys., 2017,
     147, 034112. DOI: 10.1063/1.4993215
   * E. Caldeweyher, S. Ehlert, A. Hansen, H. Neugebauer, S. Spicher,
     C. Bannwarth and S. Grimme, J. Chem. Phys., 2019, 150, 154122.
     DOI: 10.1063/1.5090222
   * E. Caldeweyher, J.-M. Mewes, S. Ehlert and S. Grimme, Phys. Chem. Chem. Phys.
     2020, 22, 8499-8512. DOI: 10.1039/D0CP00502A
   
   for sTDA-xTB:
   * S. Grimme and C. Bannwarth, J. Chem. Phys., 2016, 145, 054103.
     DOI: 10.1063/1.4959605
   
   in the mass-spec context:
   * V. Asgeirsson, C. Bauer and S. Grimme, Chem. Sci., 2017, 8, 4879.
     DOI: 10.1039/c7sc00601b
   * J. Koopman and S. Grimme, ACS Omega 2019, 4, 12, 15120-15133.
     DOI: 10.1021/acsomega.9b02011
   
   for metadynamics refer to:
   * S. Grimme, J. Chem. Theory Comput., 2019, 155, 2847-2862
     DOI: 10.1021/acs.jctc.9b00143
   
   for SPH calculations refer to:
   * S. Spicher and S. Grimme, J. Chem. Theory Comput., 2021, 17, 1701-1714
     DOI: 10.1021/acs.jctc.0c01306
   
   for ONIOM refer to:
   * C. Plett, A. Katbashev, S. Ehlert, S. Grimme, M. Bursch,
     Phys. Chem. Chem. Phys., 2023, 25, 17860-17868. DOI: 10.1039/D3CP02178E
   
   for DIPRO refer to:
   * J. Kohn, N. Gildemeister, S. Grimme, D. Fazzi, A. Hansen,
     J. Chem. Phys., 2023, just accepted.
   
   for PTB refer to:
   * S. Grimme, M. Mueller, A. Hansen, J. Chem. Phys., 2023, 158, 124111.
     DOI: 10.1063/5.0137838
   
   with help from (in alphabetical order)
   P. Atkinson, C. Bannwarth, F. Bohle, G. Brandenburg, E. Caldeweyher
   M. Checinski, S. Dohm, S. Ehlert, S. Ehrlich, I. Gerasimov, C. Hölzer
   A. Katbashev, J. Kohn, J. Koopman, C. Lavigne, S. Lehtola, F. März, M. Müller,
   F. Musil, H. Neugebauer, J. Pisarek, C. Plett, P. Pracht, F. Pultar,
   J. Seibert, P. Shushkov, S. Spicher, M. Stahn, M. Steiner, T. Strunk,
   J. Stückrath, T. Rose, and J. Unsleber
   
 * started run on 2025/01/10 at 14:24:21.602     
   ID    Z sym.   atoms
    1    6 C      1, 4, 10
    2    7 N      2, 5, 11
    3    1 H      3, 6, 8, 9, 12
    4    8 O      7

           -------------------------------------------------
          |                Calculation Setup                |
           -------------------------------------------------

          program call               : /home/adpal/xtb-dist/bin/xtb ./results/p_{0,19}_coordinatesxTB.xyz --ohess --uhf 1 --parallel 8
          coordinate file            : ./results/p_{0,19}_coordinatesxTB.xyz
          omp threads                :                     8


           -------------------------------------------------
          |                 G F N 2 - x T B                 |
           -------------------------------------------------

        Reference                      10.1021/acs.jctc.8b01176
      * Hamiltonian:
        H0-scaling (s, p, d)           1.850000    2.230000    2.230000
        zeta-weighting                 0.500000
      * Dispersion:
        s8                             2.700000
        a1                             0.520000
        a2                             5.000000
        s9                             5.000000
      * Repulsion:
        kExp                           1.500000    1.000000
        rExp                           1.000000
      * Coulomb:
        alpha                          2.000000
        third order                    shell-resolved
        anisotropic                    true
        a3                             3.000000
        a5                             4.000000
        cn-shift                       1.200000
        cn-exp                         4.000000
        max-rad                        5.000000

q/qsh data taken from xtbrestart
CAMM data taken from xtbrestart

          ...................................................
          :                      SETUP                      :
          :.................................................:
          :  # basis functions                  33          :
          :  # atomic orbitals                  33          :
          :  # shells                           19          :
          :  # electrons                        38          :
          :  max. iterations                   250          :
          :  Hamiltonian                  GFN2-xTB          :
          :  restarted?                       true          :
          :  GBSA solvation                  false          :
          :  PC potential                    false          :
          :  electronic temp.          300.0000000     K    :
          :  accuracy                    1.0000000          :
          :  -> integral cutoff          0.2500000E+02      :
          :  -> integral neglect         0.1000000E-07      :
          :  -> SCF convergence          0.1000000E-05 Eh   :
          :  -> wf. convergence          0.1000000E-03 e    :
          :  Broyden damping             0.4000000          :
          :  net charge                          0          :
          :  unpaired electrons                  1          :
          ...................................................

 iter      E             dE          RMSdq      gap      omega  full diag
   1    -22.0141447 -0.220141E+02  0.204E-06    2.18       0.0  T
   2    -22.0141447  0.000000E+00  0.132E-06    2.18   21891.9  T
   3    -22.0141447  0.106581E-13  0.807E-07    2.18   35788.3  T

   *** convergence criteria satisfied after 3 iterations ***

         #    Occupation            Energy/Eh            Energy/eV
      -------------------------------------------------------------
         1        2.0000           -0.7522360             -20.4694
       ...           ...                  ...                  ...
        13        2.0000           -0.5119644             -13.9313
        14        2.0000           -0.5011084             -13.6359
        15        2.0000           -0.4777004             -12.9989
        16        2.0000           -0.4311897             -11.7333
        17        2.0000           -0.4166894             -11.3387
        18        2.0000           -0.4059497             -11.0465
        19        2.0000           -0.3870002             -10.5308 (HOMO)
        20                         -0.3069930              -8.3537 (LUMO)
        21                         -0.2314079              -6.2969
        22                         -0.1817568              -4.9459
        23                          0.0580460               1.5795
        24                          0.0922865               2.5112
       ...                                ...                  ...
        33                          0.6139969              16.7077
      -------------------------------------------------------------
                  HL-Gap            0.0800072 Eh            2.1771 eV
             Fermi-level           -0.3469966 Eh           -9.4423 eV

 SCC (total)                   0 d,  0 h,  0 min,  0.008 sec
 SCC setup                      ...        0 min,  0.000 sec (  2.287%)
 Dispersion                     ...        0 min,  0.000 sec (  0.867%)
 classical contributions        ...        0 min,  0.000 sec (  0.204%)
 integral evaluation            ...        0 min,  0.000 sec (  5.103%)
 iterations                     ...        0 min,  0.007 sec ( 79.548%)
 molecular gradient             ...        0 min,  0.001 sec (  9.560%)
 printout                       ...        0 min,  0.000 sec (  2.132%)

         :::::::::::::::::::::::::::::::::::::::::::::::::::::
         ::                     SUMMARY                     ::
         :::::::::::::::::::::::::::::::::::::::::::::::::::::
         :: total energy             -21.753019985653 Eh    ::
         :: gradient norm              0.000034816801 Eh/a0 ::
         :: HOMO-LUMO gap              2.177106563412 eV    ::
         ::.................................................::
         :: SCC energy               -22.014147321408 Eh    ::
         :: -> isotropic ES            0.044992187261 Eh    ::
         :: -> anisotropic ES         -0.000543025937 Eh    ::
         :: -> anisotropic XC          0.020886096531 Eh    ::
         :: -> dispersion             -0.007311642798 Eh    ::
         :: repulsion energy           0.261127335755 Eh    ::
         :: add. restraining           0.000000000000 Eh    ::
         :: total charge               0.000000000000 e     ::
         :::::::::::::::::::::::::::::::::::::::::::::::::::::

      ----------------------------------------------------------- 
     |                   =====================                   |
     |                        A N C O P T                        |
     |                   =====================                   |
     |               Approximate Normal Coordinate               |
     |                Rational Function Optimizer                |
      ----------------------------------------------------------- 
      ----------------------------------------------------------- 
     |                   =====================                   |
     |                        A N C O P T                        |
     |                   =====================                   |
     |               Approximate Normal Coordinate               |
     |                Rational Function Optimizer                |
      ----------------------------------------------------------- 

          ...................................................
          :                      SETUP                      :
          :.................................................:
          :   optimization level            normal          :
          :   max. optcycles                   200          :
          :   ANC micro-cycles                  20          :
          :   degrees of freedom                30          :
          :.................................................:
          :   RF solver                   davidson          :
          :   write xtbopt.log                true          :
          :   linear?                        false          :
          :   energy convergence         0.5000000E-05 Eh   :
          :   grad. convergence          0.1000000E-02 Eh/α :
          :   maxmium RF displ.          1.0000000          :
          :   Hlow (freq-cutoff)         0.1000000E-01      :
          :   Hmax (freq-cutoff)         5.0000000          :
          :   S6 in model hess.         20.0000000          :
          ...................................................

generating ANC from exact Hessian ...
Using Lindh-Hessian (1995)
 Shifting diagonal of input Hessian by   6.216513363462210E-003
 Lowest  eigenvalues of input Hessian
    0.000000    0.000000    0.000000    0.000000    0.000000    0.000000
    0.010000    0.012138    0.017732    0.025816    0.037887    0.042186
    0.057465    0.068579    0.075962    0.114116    0.125880    0.130092
 Highest eigenvalues
    1.506971    1.558712    1.816701    2.125626    2.269899    2.357013
 

........................................................................
.............................. CYCLE    1 ..............................
........................................................................

 iter      E             dE          RMSdq      gap      omega  full diag
   1    -22.0141447 -0.220141E+02  0.131E-07    2.18       0.0  T
   2    -22.0141447 -0.355271E-14  0.827E-08    2.18  100000.0  T
   3    -22.0141447 -0.248690E-13  0.491E-08    2.18  100000.0  T
     SCC iter.                  ...        0 min,  0.001 sec
     gradient                   ...        0 min,  0.001 sec
 * total energy  :   -21.7530200 Eh     change       -0.3197442E-13 Eh
   gradient norm :     0.0000348 Eh/α   predicted     0.0000000E+00 (-100.00%)
   displ. norm   :     0.0004018 α      lambda       -0.4366961E-08
   maximum displ.:     0.0002925 α      in ANC's #2, #1, #3, ...

   *** GEOMETRY OPTIMIZATION CONVERGED AFTER 1 ITERATIONS ***

------------------------------------------------------------------------
 total energy gain   :        -0.0000000 Eh       -0.0000 kcal/mol
 total RMSD          :         0.0000000 a0        0.0000 Å
 total power (kW/mol):        -0.0000000 (step)   -0.0000 (real)
------------------------------------------------------------------------

 ANCopt (total)                0 d,  0 h,  0 min,  0.004 sec
 optimizer setup                ...        0 min,  0.000 sec (  2.748%)
 model hessian                  ...        0 min,  0.001 sec ( 19.502%)
 ANC generation                 ...        0 min,  0.000 sec (  5.439%)
 coordinate transformation      ...        0 min,  0.000 sec (  0.353%)
 single point calculation       ...        0 min,  0.002 sec ( 61.061%)
 optimization log               ...        0 min,  0.000 sec (  5.927%)
 hessian update                 ...        0 min,  0.000 sec (  0.051%)
 rational function              ...        0 min,  0.000 sec (  2.235%)

================
 final structure:
================
12
 xtb: 6.7.1 (edcfbbe)
C            0.92189031119684        0.04622319810715        0.60495231892950
N            0.06864060093738        0.05754137183692       -0.32175665059688
H            0.72120085461453        0.15865404527046        1.68076525950847
C            2.77053649231418       -0.74869150624419       -0.56781012870901
N            2.26591679253047       -0.00595043295378        0.34894082044585
H            2.17287573290851       -1.47363145021057       -1.12154972032231
O            4.70050194819504        0.74241117048739        0.76724949364865
H           -0.89523335391257        0.17092123550064       -0.02397245020757
H            3.71744190871191        0.70586305141307        0.95719970899902
C            4.92485827397299       -0.01510958426660       -0.27196385802501
N            4.08576987381902       -0.73586643644171       -0.91804865916885
H            5.96113056471082       -0.03838466249780       -0.59580613450156
 
 Bond Distances (Angstroems)
 ---------------------------
C1-N2=1.2597         C1-H3=1.1001         C1-N5=1.3692         N2-C1=1.2597         N2-H8=1.0152         H3-C1=1.1001         
C4-N5=1.2833         C4-H6=1.0906         C4-N11=1.3611        N5-C1=1.3692         N5-C4=1.2833         H6-C4=1.0906         
O7-H9=1.0019         O7-C10=1.3054        H8-N2=1.0152         H9-O7=1.0019         C10-O7=1.3054        C10-N11=1.2810       
C10-H12=1.0859       N11-C4=1.3611        N11-C10=1.2810       H12-C10=1.0859       
 C  H  Rav=1.0922 sigma=0.0059  Rmin=1.0859  Rmax=1.1001     3
 N  H  Rav=1.0152 sigma=0.0000  Rmin=1.0152  Rmax=1.0152     1
 N  C  Rav=1.3109 sigma=0.0452  Rmin=1.2597  Rmax=1.3692     5
 O  H  Rav=1.0019 sigma=0.0000  Rmin=1.0019  Rmax=1.0019     1
 O  C  Rav=1.3054 sigma=0.0000  Rmin=1.3054  Rmax=1.3054     1
 
 selected bond angles (degree)
 --------------------
H3-C1-N2=126.51                N5-C1-N2=121.85                N5-C1-H3=111.46                H8-N2-C1=115.36                
H6-C4-N5=122.14                N11-C4-N5=123.94               N11-C4-H6=113.90               C4-N5-C1=122.80                
C10-O7-H9=107.36               N11-C10-O7=127.98              H12-C10-O7=114.45              H12-C10-N11=117.55             
 
 selected dihedral angles (degree)
 ---------------------------------
H8-N2-C1-H3=359.17            H8-N2-C1-N5=184.60            C4-N5-C1-N2=319.11            C4-N5-C1-H3=143.80            
C1-N5-C4-H6=352.57            C1-N5-C4-N11=174.24           N11-C10-O7-H9=356.97          H12-C10-O7-H9=178.49          
           -------------------------------------------------
          |                Final Singlepoint                |
           -------------------------------------------------

          ...................................................
          :                      SETUP                      :
          :.................................................:
          :  # basis functions                  33          :
          :  # atomic orbitals                  33          :
          :  # shells                           19          :
          :  # electrons                        38          :
          :  max. iterations                   250          :
          :  Hamiltonian                  GFN2-xTB          :
          :  restarted?                      false          :
          :  GBSA solvation                  false          :
          :  PC potential                    false          :
          :  electronic temp.          300.0000000     K    :
          :  accuracy                    1.0000000          :
          :  -> integral cutoff          0.2500000E+02      :
          :  -> integral neglect         0.1000000E-07      :
          :  -> SCF convergence          0.1000000E-05 Eh   :
          :  -> wf. convergence          0.1000000E-03 e    :
          :  Broyden damping             0.4000000          :
          :  net charge                          0          :
          :  unpaired electrons                  1          :
          ...................................................

 iter      E             dE          RMSdq      gap      omega  full diag
   1    -22.0141447 -0.220141E+02  0.107E-08    2.18       0.0  T
   2    -22.0141447 -0.213163E-13  0.714E-09    2.18  100000.0  T
   3    -22.0141447  0.710543E-14  0.427E-09    2.18  100000.0  T

   *** convergence criteria satisfied after 3 iterations ***

         #    Occupation            Energy/Eh            Energy/eV
      -------------------------------------------------------------
         1        2.0000           -0.7522360             -20.4694
       ...           ...                  ...                  ...
        13        2.0000           -0.5119644             -13.9313
        14        2.0000           -0.5011084             -13.6359
        15        2.0000           -0.4777004             -12.9989
        16        2.0000           -0.4311897             -11.7333
        17        2.0000           -0.4166894             -11.3387
        18        2.0000           -0.4059497             -11.0465
        19        2.0000           -0.3870002             -10.5308 (HOMO)
        20                         -0.3069930              -8.3537 (LUMO)
        21                         -0.2314079              -6.2969
        22                         -0.1817568              -4.9459
        23                          0.0580460               1.5795
        24                          0.0922865               2.5112
       ...                                ...                  ...
        33                          0.6139969              16.7077
      -------------------------------------------------------------
                  HL-Gap            0.0800072 Eh            2.1771 eV
             Fermi-level           -0.3469966 Eh           -9.4423 eV

 SCC (total)                   0 d,  0 h,  0 min,  0.002 sec
 SCC setup                      ...        0 min,  0.000 sec (  5.085%)
 Dispersion                     ...        0 min,  0.000 sec (  1.606%)
 classical contributions        ...        0 min,  0.000 sec (  0.532%)
 integral evaluation            ...        0 min,  0.000 sec ( 14.766%)
 iterations                     ...        0 min,  0.001 sec ( 37.979%)
 molecular gradient             ...        0 min,  0.001 sec ( 32.968%)
 printout                       ...        0 min,  0.000 sec (  6.064%)

         :::::::::::::::::::::::::::::::::::::::::::::::::::::
         ::                     SUMMARY                     ::
         :::::::::::::::::::::::::::::::::::::::::::::::::::::
         :: total energy             -21.753019985653 Eh    ::
         :: gradient norm              0.000034815436 Eh/a0 ::
         :: HOMO-LUMO gap              2.177106583355 eV    ::
         ::.................................................::
         :: SCC energy               -22.014147321408 Eh    ::
         :: -> isotropic ES            0.044992191773 Eh    ::
         :: -> anisotropic ES         -0.000543025941 Eh    ::
         :: -> anisotropic XC          0.020886096458 Eh    ::
         :: -> dispersion             -0.007311642822 Eh    ::
         :: repulsion energy           0.261127335755 Eh    ::
         :: add. restraining           0.000000000000 Eh    ::
         :: total charge               0.000000000000 e     ::
         :::::::::::::::::::::::::::::::::::::::::::::::::::::

           ------------------------------------------------- 
          |                Numerical Hessian                |
           ------------------------------------------------- 
step length          :   0.00500
SCC accuracy         :   0.30000
Hessian scale factor :   1.00000
frozen atoms in %    :   0.00000    0
RMS gradient         :   0.00003
estimated CPU  time      0.03 min
estimated wall time      0.00 min

writing file <hessian>.

 projected vibrational frequencies (cm⁻¹)
eigval :       -0.00    -0.00    -0.00     0.00     0.00     0.00
eigval :       59.68   141.53   150.17   201.27   324.35   454.21
eigval :      461.00   648.72   774.74   803.13   821.20   894.95
eigval :      947.69   972.89  1061.77  1108.51  1184.24  1191.30
eigval :     1257.36  1310.05  1353.17  1358.78  1568.48  1645.36
eigval :     1677.86  2796.61  2822.75  2955.90  3030.46  3375.11
           -------------------------------------------------
          |                Property Printout                |
           -------------------------------------------------

    * Orbital Energies and Occupations

         #    Occupation            Energy/Eh            Energy/eV
      -------------------------------------------------------------
         1        2.0000           -0.7522360             -20.4694
       ...           ...                  ...                  ...
         7        2.0000           -0.5916908             -16.1007
         8        2.0000           -0.5816051             -15.8263
         9        2.0000           -0.5740908             -15.6218
        10        2.0000           -0.5515395             -15.0082
        11        2.0000           -0.5434641             -14.7884
        12        2.0000           -0.5205791             -14.1657
        13        2.0000           -0.5119644             -13.9313
        14        2.0000           -0.5011084             -13.6359
        15        2.0000           -0.4777004             -12.9989
        16        2.0000           -0.4311897             -11.7333
        17        2.0000           -0.4166894             -11.3387
        18        2.0000           -0.4059497             -11.0465
        19        2.0000           -0.3870002             -10.5308 (HOMO)
        20                         -0.3069930              -8.3537 (LUMO)
        21                         -0.2314079              -6.2969
        22                         -0.1817569              -4.9459
        23                          0.0580460               1.5795
        24                          0.0922865               2.5112
        25                          0.1157847               3.1507
        26                          0.1298318               3.5329
        27                          0.1963646               5.3434
        28                          0.2161174               5.8809
        29                          0.2772534               7.5444
        30                          0.3749903              10.2040
       ...                                ...                  ...
        33                          0.6139969              16.7077
      -------------------------------------------------------------
                  HL-Gap            0.0800072 Eh            2.1771 eV
             Fermi-level           -0.3469966 Eh           -9.4423 eV

     #   Z          covCN         q      C6AA      α(0)
     1   6 C        2.783     0.162    24.480     8.104
     2   7 N        1.782    -0.332    29.429     8.034
     3   1 H        0.923     0.004     2.997     2.707
     4   6 C        2.842     0.171    24.308     8.080
     5   7 N        1.841    -0.255    27.495     7.771
     6   1 H        0.924     0.047     2.353     2.399
     7   8 O        1.654    -0.331    19.567     5.971
     8   1 H        0.860     0.146     1.426     1.870
     9   1 H        0.802     0.352     0.584     1.201
    10   6 C        2.748     0.231    23.158     7.880
    11   7 N        1.827    -0.271    27.893     7.826
    12   1 H        0.925     0.076     2.023     2.224

 Mol. C6AA /au·bohr⁶  :       1732.915454
 Mol. C8AA /au·bohr⁸  :      38624.758768
 Mol. α(0) /au        :         64.067227


Wiberg/Mayer (AO) data.
largest (>0.10) Wiberg bond orders for each atom

 ---------------------------------------------------------------------------
     #   Z sym  total        # sym  WBO       # sym  WBO       # sym  WBO
 ---------------------------------------------------------------------------
     1   6 C    3.968 --     2 N    1.846     5 N    1.150     3 H    0.931
     2   7 N    3.023 --     1 C    1.846     8 H    0.952
     3   1 H    1.000 --     1 C    0.931
     4   6 C    3.955 --     5 N    1.669    11 N    1.203     6 H    0.943
     5   7 N    3.219 --     4 C    1.669     1 C    1.150
     6   1 H    0.998 --     4 C    0.943
     7   8 O    2.295 --    10 C    1.263     9 H    0.770    11 N    0.156
     8   1 H    0.978 --     2 N    0.952
     9   1 H    0.876 --     7 O    0.770
    10   6 C    3.933 --    11 N    1.609     7 O    1.263    12 H    0.944
    11   7 N    3.066 --    10 C    1.609     4 C    1.203     7 O    0.156
    12   1 H    0.994 --    10 C    0.944
 ---------------------------------------------------------------------------

Topologies differ in total number of bonds
Writing topology from bond orders to xtbtopo.mol

molecular dipole:
                 x           y           z       tot (Debye)
 q only:        0.431       0.025       0.363
   full:       -0.022       0.027       0.817       2.078
molecular quadrupole (traceless):
                xx          xy          yy          xz          yz          zz
 q only:        6.182       0.152      -3.127       0.083       0.167      -3.056
  q+dip:        3.636       0.778      -1.782       1.444      -0.661      -1.854
   full:        2.886       0.418      -0.616       1.419      -1.860      -2.271

           -------------------------------------------------
          |                Geometry Summary                 |
           -------------------------------------------------

      molecular mass/u    :       99.0914260
   center of mass at/Å    :        2.8297394      -0.0686919      -0.0213957
  moments of inertia/u·Å² :        0.6404694E+02   0.3204812E+03   0.3750016E+03
rotational constants/cm⁻¹ :        0.2632075E+00   0.5260100E-01   0.4495349E-01

 * 9 selected distances

     #   Z          #   Z                                           value/Å
     1   6 C        2   7 N                                       1.2597432
     1   6 C        3   1 H                                       1.1001321
     1   6 C        5   7 N                                       1.3691864 (max)
     4   6 C        5   7 N                                       1.2832529
     4   6 C        6   1 H                                       1.0905797
     7   8 O       10   6 C                                       1.3054264
     4   6 C       11   7 N                                       1.3611285
    10   6 C       11   7 N                                       1.2810096
    10   6 C       12   1 H                                       1.0859448 (min)

 * 3 distinct bonds (by element types)

   Z      Z             #   av. dist./Å        max./Å        min./Å
   1 H    6 C           3     1.0922189     1.1001321     1.0859448
   6 C    7 N           5     1.3108641     1.3691864     1.2597432
   6 C    8 O           1     1.3054264     1.3054264     1.3054264

           -------------------------------------------------
          |               Frequency Printout                |
           -------------------------------------------------
 projected vibrational frequencies (cm⁻¹)
eigval :       -0.00    -0.00    -0.00     0.00     0.00     0.00
eigval :       59.68   141.53   150.17   201.27   324.35   454.21
eigval :      461.00   648.72   774.74   803.13   821.20   894.95
eigval :      947.69   972.89  1061.77  1108.51  1184.24  1191.30
eigval :     1257.36  1310.05  1353.17  1358.78  1568.48  1645.36
eigval :     1677.86  2796.61  2822.75  2955.90  3030.46  3375.11
 reduced masses (amu)
   1: 12.88   2: 13.10   3: 12.09   4: 12.68   5: 12.86   6: 12.86   7: 12.55   8: 11.24
   9:  9.62  10: 11.45  11: 10.51  12: 10.34  13: 10.50  14: 11.14  15:  6.17  16:  4.79
  17: 10.59  18:  4.35  19:  4.18  20:  3.87  21:  9.81  22:  8.38  23:  4.40  24:  5.78
  25:  7.73  26:  3.43  27:  5.86  28:  7.83  29: 12.36  30: 12.42  31: 12.41  32:  1.90
  33:  1.71  34:  1.76  35:  1.80  36:  1.88
 IR intensities (km·mol⁻¹)
   1:  0.19   2:  1.76   3:  0.47   4:  0.26   5:  0.22   6:  0.41   7:  1.61   8:  0.19
   9: 11.60  10: 11.41  11: 31.34  12:  7.52  13:  3.80  14: 12.70  15: 41.05  16:188.54
  17: 41.11  18: 66.99  19: 17.75  20: 22.53  21:193.27  22: 12.08  23: 37.73  24: 94.42
  25: 37.79  26: 43.44  27: 65.76  28:  5.50  29:635.28  30:420.01  31:170.65  32:271.95
  33:137.94  34: 32.37  35:  3.40  36:  6.90
 Raman intensities (Ä⁴*amu⁻¹)
   1:  0.00   2:  0.00   3:  0.00   4:  0.00   5:  0.00   6:  0.00   7:  0.00   8:  0.00
   9:  0.00  10:  0.00  11:  0.00  12:  0.00  13:  0.00  14:  0.00  15:  0.00  16:  0.00
  17:  0.00  18:  0.00  19:  0.00  20:  0.00  21:  0.00  22:  0.00  23:  0.00  24:  0.00
  25:  0.00  26:  0.00  27:  0.00  28:  0.00  29:  0.00  30:  0.00  31:  0.00  32:  0.00
  33:  0.00  34:  0.00  35:  0.00  36:  0.00
 output can be read by thermo (or use thermo option).
 writing <g98.out> molden fake output.
 recommended (thermochemical) frequency scaling factor: 1.0
           -------------------------------------------------
          |             Thermodynamic Functions             |
           -------------------------------------------------

Molecule has no symmetry elements
It seems to be the C1 point group
c1  symmetry found (for desy threshold:  0.10E+00) used in thermo

          ...................................................
          :                      SETUP                      :
          :.................................................:
          :  # frequencies                          30      :
          :  # imaginary freq.                       0      :
          :  linear?                             false      :
          :  only rotor calc.                    false      :
          :  symmetry                               c1      :
          :  rotational number                       1      :
          :  scaling factor                  1.0000000      :
          :  rotor cutoff                   50.0000000 cm⁻¹ :
          :  imag. cutoff                  -20.0000000 cm⁻¹ :
          :.................................................:

    mode    ω/cm⁻¹     T·S(HO)/kcal·mol⁻¹    T·S(FR)/kcal·mol⁻¹   T·S(vib)
   ------------------------------------------------------------------------
       1     59.68    -1.33202 ( 67.00%)    -1.00377 ( 33.00%)    -1.22369
       2    141.53    -0.82977 ( 98.47%)    -0.74817 (  1.53%)    -0.82852
       3    150.17    -0.79608 ( 98.79%)    -0.73063 (  1.21%)    -0.79529
       4    201.27    -0.63252 ( 99.62%)    -0.64390 (  0.38%)    -0.63256
   ------------------------------------------------------------------------

   temp. (K)  partition function   enthalpy   heat capacity  entropy
                                   cal/mol     cal/K/mol   cal/K/mol   J/K/mol
 298.15  VIB   47.5                 2655.108     17.545     16.210
         ROT  0.212E+06              888.752      2.981     27.353
         INT  0.101E+08             3543.860     20.526     43.563
         TR   0.954E+27             1481.254      4.968     39.673
         TOT                        5025.1144    25.4937    83.2355   348.2574

       T/K    H(0)-H(T)+PV         H(T)/Eh          T*S/Eh         G(T)/Eh
   ------------------------------------------------------------------------
    298.15    0.800803E-02    0.931050E-01    0.395479E-01    0.535571E-01
   ------------------------------------------------------------------------

         :::::::::::::::::::::::::::::::::::::::::::::::::::::
         ::                  THERMODYNAMIC                  ::
         :::::::::::::::::::::::::::::::::::::::::::::::::::::
         :: total free energy         -21.699462898826 Eh   ::
         ::.................................................::
         :: total energy              -21.753019985652 Eh   ::
         :: zero point energy           0.085096933508 Eh   ::
         :: G(RRHO) w/o ZPVE           -0.031539846682 Eh   ::
         :: G(RRHO) contrib.            0.053557086827 Eh   ::
         :::::::::::::::::::::::::::::::::::::::::::::::::::::

optimized geometry written to: xtbopt.xyz


           -------------------------------------------------
          | TOTAL ENERGY              -21.753019985652 Eh   |
          | TOTAL ENTHALPY            -21.659915022634 Eh   |
          | TOTAL FREE ENERGY         -21.699462898826 Eh   |
          | GRADIENT NORM               0.000034823476 Eh/α |
          | HOMO-LUMO GAP               2.177106468866 eV   |
           -------------------------------------------------

------------------------------------------------------------------------
 * finished run on 2025/01/10 at 14:24:21.710     
------------------------------------------------------------------------
 total:
 * wall-time:     0 d,  0 h,  0 min,  0.107 sec
 *  cpu-time:     0 d,  0 h,  0 min,  0.810 sec
 * ratio c/w:     7.571 speedup
 SCF:
 * wall-time:     0 d,  0 h,  0 min,  0.008 sec
 *  cpu-time:     0 d,  0 h,  0 min,  0.063 sec
 * ratio c/w:     7.433 speedup
 ANC optimizer:
 * wall-time:     0 d,  0 h,  0 min,  0.007 sec
 *  cpu-time:     0 d,  0 h,  0 min,  0.055 sec
 * ratio c/w:     7.991 speedup
 analytical hessian:
 * wall-time:     0 d,  0 h,  0 min,  0.076 sec
 *  cpu-time:     0 d,  0 h,  0 min,  0.610 sec
 * ratio c/w:     7.997 speedup

normal termination of xtb
