      -----------------------------------------------------------      
     |                   =====================                   |     
     |                           x T B                           |     
     |                   =====================                   |     
     |                         S. Grimme                         |     
     |          Mulliken Center for Theoretical Chemistry        |     
     |                    University of Bonn                     |     
      -----------------------------------------------------------      

   * xtb version 6.7.1 (edcfbbe) compiled by 'albert@albert-system' on 2024-07-22

   xtb is free software: you can redistribute it and/or modify it under
   the terms of the GNU Lesser General Public License as published by
   the Free Software Foundation, either version 3 of the License, or
   (at your option) any later version.
   
   xtb is distributed in the hope that it will be useful,
   but WITHOUT ANY WARRANTY; without even the implied warranty of
   MERCHANTABILITY or FITNESS FOR A PARTICULAR PURPOSE.  See the
   GNU Lesser General Public License for more details.
   
   Cite this work as:
   * C. Bannwarth, E. Caldeweyher, S. Ehlert, A. Hansen, P. Pracht,
     J. Seibert, S. Spicher, S. Grimme, WIREs Comput. Mol. Sci., 2020, 11,
     e01493. DOI: 10.1002/wcms.1493
   
   for GFN2-xTB:
   * C. Bannwarth, S. Ehlert and S. Grimme., J. Chem. Theory Comput., 2019,
     15, 1652-1671. DOI: 10.1021/acs.jctc.8b01176
   for GFN1-xTB:
   * S. Grimme, C. Bannwarth, P. Shushkov, J. Chem. Theory Comput., 2017,
     13, 1989-2009. DOI: 10.1021/acs.jctc.7b00118
   for GFN0-xTB:
   * P. Pracht, E. Caldeweyher, S. Ehlert, S. Grimme, ChemRxiv, 2019, preprint.
     DOI: 10.26434/chemrxiv.8326202.v1
   for GFN-FF:
   * S. Spicher and S. Grimme, Angew. Chem. Int. Ed., 2020, 59, 15665-15673.
     DOI: 10.1002/anie.202004239
   
   for ALPB and GBSA implicit solvation:
   * S. Ehlert, M. Stahn, S. Spicher, S. Grimme, J. Chem. Theory Comput.,
     2021, 17, 4250-4261. DOI: 10.1021/acs.jctc.1c00471
   
   for ddCOSMO and CPCM-X implicit solvation:
   * M. Stahn, S. Ehlert, S. Grimme, J. Phys. Chem. A,
     2023, XX, XXXX-XXXX. DOI: 10.1021/acs.jpca.3c04382
   
   for DFT-D4:
   * E. Caldeweyher, C. Bannwarth and S. Grimme, J. Chem. Phys., 2017,
     147, 034112. DOI: 10.1063/1.4993215
   * E. Caldeweyher, S. Ehlert, A. Hansen, H. Neugebauer, S. Spicher,
     C. Bannwarth and S. Grimme, J. Chem. Phys., 2019, 150, 154122.
     DOI: 10.1063/1.5090222
   * E. Caldeweyher, J.-M. Mewes, S. Ehlert and S. Grimme, Phys. Chem. Chem. Phys.
     2020, 22, 8499-8512. DOI: 10.1039/D0CP00502A
   
   for sTDA-xTB:
   * S. Grimme and C. Bannwarth, J. Chem. Phys., 2016, 145, 054103.
     DOI: 10.1063/1.4959605
   
   in the mass-spec context:
   * V. Asgeirsson, C. Bauer and S. Grimme, Chem. Sci., 2017, 8, 4879.
     DOI: 10.1039/c7sc00601b
   * J. Koopman and S. Grimme, ACS Omega 2019, 4, 12, 15120-15133.
     DOI: 10.1021/acsomega.9b02011
   
   for metadynamics refer to:
   * S. Grimme, J. Chem. Theory Comput., 2019, 155, 2847-2862
     DOI: 10.1021/acs.jctc.9b00143
   
   for SPH calculations refer to:
   * S. Spicher and S. Grimme, J. Chem. Theory Comput., 2021, 17, 1701-1714
     DOI: 10.1021/acs.jctc.0c01306
   
   for ONIOM refer to:
   * C. Plett, A. Katbashev, S. Ehlert, S. Grimme, M. Bursch,
     Phys. Chem. Chem. Phys., 2023, 25, 17860-17868. DOI: 10.1039/D3CP02178E
   
   for DIPRO refer to:
   * J. Kohn, N. Gildemeister, S. Grimme, D. Fazzi, A. Hansen,
     J. Chem. Phys., 2023, just accepted.
   
   for PTB refer to:
   * S. Grimme, M. Mueller, A. Hansen, J. Chem. Phys., 2023, 158, 124111.
     DOI: 10.1063/5.0137838
   
   with help from (in alphabetical order)
   P. Atkinson, C. Bannwarth, F. Bohle, G. Brandenburg, E. Caldeweyher
   M. Checinski, S. Dohm, S. Ehlert, S. Ehrlich, I. Gerasimov, C. Hölzer
   A. Katbashev, J. Kohn, J. Koopman, C. Lavigne, S. Lehtola, F. März, M. Müller,
   F. Musil, H. Neugebauer, J. Pisarek, C. Plett, P. Pracht, F. Pultar,
   J. Seibert, P. Shushkov, S. Spicher, M. Stahn, M. Steiner, T. Strunk,
   J. Stückrath, T. Rose, and J. Unsleber
   
 * started run on 2025/01/10 at 14:24:09.717     
   ID    Z sym.   atoms
    1    7 N      1, 5, 10
    2    1 H      2-4, 6-8, 11
    3    6 C      9

           -------------------------------------------------
          |                Calculation Setup                |
           -------------------------------------------------

          program call               : /home/adpal/xtb-dist/bin/xtb ./results/p_{0,11}_coordinatesxTB.xyz --ohess --uhf 1 --parallel 8
          coordinate file            : ./results/p_{0,11}_coordinatesxTB.xyz
          omp threads                :                     8


           -------------------------------------------------
          |                 G F N 2 - x T B                 |
           -------------------------------------------------

        Reference                      10.1021/acs.jctc.8b01176
      * Hamiltonian:
        H0-scaling (s, p, d)           1.850000    2.230000    2.230000
        zeta-weighting                 0.500000
      * Dispersion:
        s8                             2.700000
        a1                             0.520000
        a2                             5.000000
        s9                             5.000000
      * Repulsion:
        kExp                           1.500000    1.000000
        rExp                           1.000000
      * Coulomb:
        alpha                          2.000000
        third order                    shell-resolved
        anisotropic                    true
        a3                             3.000000
        a5                             4.000000
        cn-shift                       1.200000
        cn-exp                         4.000000
        max-rad                        5.000000

q/qsh data taken from xtbrestart
CAMM data taken from xtbrestart

          ...................................................
          :                      SETUP                      :
          :.................................................:
          :  # basis functions                  23          :
          :  # atomic orbitals                  23          :
          :  # shells                           15          :
          :  # electrons                        26          :
          :  max. iterations                   250          :
          :  Hamiltonian                  GFN2-xTB          :
          :  restarted?                       true          :
          :  GBSA solvation                  false          :
          :  PC potential                    false          :
          :  electronic temp.          300.0000000     K    :
          :  accuracy                    1.0000000          :
          :  -> integral cutoff          0.2500000E+02      :
          :  -> integral neglect         0.1000000E-07      :
          :  -> SCF convergence          0.1000000E-05 Eh   :
          :  -> wf. convergence          0.1000000E-03 e    :
          :  Broyden damping             0.4000000          :
          :  net charge                          0          :
          :  unpaired electrons                  1          :
          ...................................................

 iter      E             dE          RMSdq      gap      omega  full diag
   1    -14.5998421 -0.145998E+02  0.124E-06   10.90       0.0  T
   2    -14.5998421  0.159872E-13  0.670E-07   10.90   44972.5  T
   3    -14.5998421 -0.106581E-13  0.254E-07   10.90  100000.0  T

   *** convergence criteria satisfied after 3 iterations ***

         #    Occupation            Energy/Eh            Energy/eV
      -------------------------------------------------------------
         1        2.0000           -0.6516115             -17.7313
       ...           ...                  ...                  ...
         7        2.0000           -0.5146941             -14.0055
         8        2.0000           -0.5039247             -13.7125
         9        2.0000           -0.4775368             -12.9944
        10        2.0000           -0.4509732             -12.2716
        11        2.0000           -0.4006387             -10.9019
        12        2.0000           -0.3753416             -10.2136
        13        2.0000           -0.3650280              -9.9329 (HOMO)
        14                          0.0355143               0.9664 (LUMO)
        15                          0.0509425               1.3862
        16                          0.0848470               2.3088
        17                          0.1013298               2.7573
        18                          0.1375532               3.7430
       ...                                ...                  ...
        23                          0.2774378               7.5495
      -------------------------------------------------------------
                  HL-Gap            0.4005423 Eh           10.8993 eV
             Fermi-level           -0.1647569 Eh           -4.4833 eV

 SCC (total)                   0 d,  0 h,  0 min,  0.005 sec
 SCC setup                      ...        0 min,  0.000 sec (  4.669%)
 Dispersion                     ...        0 min,  0.000 sec (  1.392%)
 classical contributions        ...        0 min,  0.000 sec (  0.366%)
 integral evaluation            ...        0 min,  0.000 sec (  8.415%)
 iterations                     ...        0 min,  0.003 sec ( 67.332%)
 molecular gradient             ...        0 min,  0.001 sec ( 13.416%)
 printout                       ...        0 min,  0.000 sec (  3.853%)

         :::::::::::::::::::::::::::::::::::::::::::::::::::::
         ::                     SUMMARY                     ::
         :::::::::::::::::::::::::::::::::::::::::::::::::::::
         :: total energy             -14.440031565125 Eh    ::
         :: gradient norm              0.000025109710 Eh/a0 ::
         :: HOMO-LUMO gap             10.899311021575 eV    ::
         ::.................................................::
         :: SCC energy               -14.599839503537 Eh    ::
         :: -> isotropic ES            0.036168609796 Eh    ::
         :: -> anisotropic ES          0.005676025208 Eh    ::
         :: -> anisotropic XC          0.015241943955 Eh    ::
         :: -> dispersion             -0.004673137544 Eh    ::
         :: repulsion energy           0.159807938413 Eh    ::
         :: add. restraining           0.000000000000 Eh    ::
         :: total charge               0.000000000000 e     ::
         :::::::::::::::::::::::::::::::::::::::::::::::::::::

      ----------------------------------------------------------- 
     |                   =====================                   |
     |                        A N C O P T                        |
     |                   =====================                   |
     |               Approximate Normal Coordinate               |
     |                Rational Function Optimizer                |
      ----------------------------------------------------------- 
      ----------------------------------------------------------- 
     |                   =====================                   |
     |                        A N C O P T                        |
     |                   =====================                   |
     |               Approximate Normal Coordinate               |
     |                Rational Function Optimizer                |
      ----------------------------------------------------------- 

          ...................................................
          :                      SETUP                      :
          :.................................................:
          :   optimization level            normal          :
          :   max. optcycles                   200          :
          :   ANC micro-cycles                  20          :
          :   degrees of freedom                27          :
          :.................................................:
          :   RF solver                   davidson          :
          :   write xtbopt.log                true          :
          :   linear?                        false          :
          :   energy convergence         0.5000000E-05 Eh   :
          :   grad. convergence          0.1000000E-02 Eh/α :
          :   maxmium RF displ.          1.0000000          :
          :   Hlow (freq-cutoff)         0.1000000E-01      :
          :   Hmax (freq-cutoff)         5.0000000          :
          :   S6 in model hess.         20.0000000          :
          ...................................................

generating ANC from exact Hessian ...
Using Lindh-Hessian (1995)
 Shifting diagonal of input Hessian by   0.000000000000000E+000
 Lowest  eigenvalues of input Hessian
    0.000000    0.000000    0.000000    0.000000    0.000000    0.000000
    0.015193    0.017520    0.019742    0.023192    0.028657    0.033231
    0.080094    0.082058    0.095201    0.117118    0.120807    0.158366
 Highest eigenvalues
    1.281534    1.333765    1.338037    1.411385    1.554254    1.568593
 

........................................................................
.............................. CYCLE    1 ..............................
........................................................................

 iter      E             dE          RMSdq      gap      omega  full diag
   1    -14.5998421 -0.145998E+02  0.664E-08   10.90       0.0  T
   2    -14.5998421  0.177636E-14  0.345E-08   10.90  100000.0  T
   3    -14.5998421 -0.177636E-14  0.157E-08   10.90  100000.0  T
     SCC iter.                  ...        0 min,  0.001 sec
     gradient                   ...        0 min,  0.001 sec
 * total energy  :   -14.4400316 Eh     change        0.1065814E-13 Eh
   gradient norm :     0.0000251 Eh/α   predicted     0.0000000E+00 (-100.00%)
   displ. norm   :     0.0001850 α      lambda       -0.1224292E-08
   maximum displ.:     0.0000816 α      in ANC's #13, #4, #6, ...

   *** GEOMETRY OPTIMIZATION CONVERGED AFTER 1 ITERATIONS ***

------------------------------------------------------------------------
 total energy gain   :         0.0000000 Eh        0.0000 kcal/mol
 total RMSD          :         0.0000000 a0        0.0000 Å
 total power (kW/mol):         0.0000000 (step)    0.0000 (real)
------------------------------------------------------------------------

 ANCopt (total)                0 d,  0 h,  0 min,  0.005 sec
 optimizer setup                ...        0 min,  0.000 sec (  2.722%)
 model hessian                  ...        0 min,  0.002 sec ( 36.935%)
 ANC generation                 ...        0 min,  0.000 sec (  6.104%)
 coordinate transformation      ...        0 min,  0.000 sec (  0.356%)
 single point calculation       ...        0 min,  0.002 sec ( 43.254%)
 optimization log               ...        0 min,  0.000 sec (  4.612%)
 hessian update                 ...        0 min,  0.000 sec (  0.047%)
 rational function              ...        0 min,  0.000 sec (  3.120%)

================
 final structure:
================
11
 xtb: 6.7.1 (edcfbbe)
N            1.11220765276080        0.06867301577006       -0.04044133091039
H            2.77870287626524       -0.33502656427061       -2.11015434216118
H            0.72217251351464        0.48746559784166       -0.87875687007389
H            0.77289585816061       -0.88283832534431        0.02340547508601
N            3.00129374409652        1.43878878047881       -0.11043937138729
H            4.02012141811228       -0.89826532491812       -1.19143208479967
H            4.01209027373741        1.49527215390760       -0.11370578560011
H            2.63920293324068        1.93965008726777       -0.91465850653708
C            2.54813042777991        0.06634299593089       -0.10351441053813
N            3.01645395726000       -0.76345879057456       -1.21963223407907
H            2.92543834507190       -0.40164362608917        0.81449946100079
 
 Bond Distances (Angstroems)
 ---------------------------
N1-H3=1.0150         N1-H4=1.0122         N1-C9=1.4373         H2-N10=1.0164        H3-N1=1.0150         H4-N1=1.0122         
N5-H7=1.0124         N5-H8=1.0143         N5-C9=1.4453         H6-N10=1.0131        H7-N5=1.0124         H8-N5=1.0143         
C9-N1=1.4373         C9-N5=1.4453         C9-N10=1.4675        C9-H11=1.0973        N10-H2=1.0164        N10-H6=1.0131        
N10-C9=1.4675        H11-C9=1.0973        
 C  H  Rav=1.0973 sigma=0.0000  Rmin=1.0973  Rmax=1.0973     1
 N  H  Rav=1.0139 sigma=0.0015  Rmin=1.0122  Rmax=1.0164     6
 N  C  Rav=1.4501 sigma=0.0128  Rmin=1.4373  Rmax=1.4675     3
 
 selected bond angles (degree)
 --------------------
H4-N1-H3=108.13                C9-N1-H3=110.38                C9-N1-H4=109.64                H8-N5-H7=109.05                
C9-N5-H7=111.47                C9-N5-H8=111.15                N5-C9-N1=108.17                N10-C9-N1=110.68               
N10-C9-N5=115.67               H11-C9-N1=107.91               H11-C9-N5=107.53               H11-C9-N10=106.58              
H6-N10-H2=108.19               C9-N10-H2=110.69               C9-N10-H6=111.73               
 
 selected dihedral angles (degree)
 ---------------------------------
N5-C9-N1-H3= 64.47            N5-C9-N1-H4=183.48            N10-C9-N1-H3=296.78           N10-C9-N1-H4= 55.80           
H11-C9-N1-H3=180.52           H11-C9-N1-H4=299.53           N1-C9-N5-H7=177.53            N1-C9-N5-H8=299.41            
N10-C9-N5-H7=302.29           N10-C9-N5-H8= 64.17           H11-C9-N5-H7= 61.23           H11-C9-N5-H8=183.11           
H2-N10-C9-N1= 68.51           H2-N10-C9-N5=305.05           H2-N10-C9-H11=185.59          H6-N10-C9-N1=189.16           
H6-N10-C9-N5= 65.70           H6-N10-C9-H11=306.24          
           -------------------------------------------------
          |                Final Singlepoint                |
           -------------------------------------------------

          ...................................................
          :                      SETUP                      :
          :.................................................:
          :  # basis functions                  23          :
          :  # atomic orbitals                  23          :
          :  # shells                           15          :
          :  # electrons                        26          :
          :  max. iterations                   250          :
          :  Hamiltonian                  GFN2-xTB          :
          :  restarted?                      false          :
          :  GBSA solvation                  false          :
          :  PC potential                    false          :
          :  electronic temp.          300.0000000     K    :
          :  accuracy                    1.0000000          :
          :  -> integral cutoff          0.2500000E+02      :
          :  -> integral neglect         0.1000000E-07      :
          :  -> SCF convergence          0.1000000E-05 Eh   :
          :  -> wf. convergence          0.1000000E-03 e    :
          :  Broyden damping             0.4000000          :
          :  net charge                          0          :
          :  unpaired electrons                  1          :
          ...................................................

 iter      E             dE          RMSdq      gap      omega  full diag
   1    -14.5998421 -0.145998E+02  0.352E-09   10.90       0.0  T
   2    -14.5998421  0.355271E-14  0.188E-09   10.90  100000.0  T
   3    -14.5998421 -0.532907E-14  0.801E-10   10.90  100000.0  T

   *** convergence criteria satisfied after 3 iterations ***

         #    Occupation            Energy/Eh            Energy/eV
      -------------------------------------------------------------
         1        2.0000           -0.6516115             -17.7313
       ...           ...                  ...                  ...
         7        2.0000           -0.5146941             -14.0055
         8        2.0000           -0.5039247             -13.7125
         9        2.0000           -0.4775368             -12.9944
        10        2.0000           -0.4509732             -12.2716
        11        2.0000           -0.4006387             -10.9019
        12        2.0000           -0.3753416             -10.2136
        13        2.0000           -0.3650280              -9.9329 (HOMO)
        14                          0.0355143               0.9664 (LUMO)
        15                          0.0509425               1.3862
        16                          0.0848470               2.3088
        17                          0.1013298               2.7573
        18                          0.1375532               3.7430
       ...                                ...                  ...
        23                          0.2774378               7.5495
      -------------------------------------------------------------
                  HL-Gap            0.4005423 Eh           10.8993 eV
             Fermi-level           -0.1647569 Eh           -4.4833 eV

 SCC (total)                   0 d,  0 h,  0 min,  0.002 sec
 SCC setup                      ...        0 min,  0.000 sec (  6.406%)
 Dispersion                     ...        0 min,  0.000 sec (  2.191%)
 classical contributions        ...        0 min,  0.000 sec (  0.586%)
 integral evaluation            ...        0 min,  0.000 sec ( 13.945%)
 iterations                     ...        0 min,  0.001 sec ( 35.851%)
 molecular gradient             ...        0 min,  0.001 sec ( 31.037%)
 printout                       ...        0 min,  0.000 sec (  8.597%)

         :::::::::::::::::::::::::::::::::::::::::::::::::::::
         ::                     SUMMARY                     ::
         :::::::::::::::::::::::::::::::::::::::::::::::::::::
         :: total energy             -14.440031565125 Eh    ::
         :: gradient norm              0.000025109627 Eh/a0 ::
         :: HOMO-LUMO gap             10.899311026558 eV    ::
         ::.................................................::
         :: SCC energy               -14.599839503537 Eh    ::
         :: -> isotropic ES            0.036168610627 Eh    ::
         :: -> anisotropic ES          0.005676025302 Eh    ::
         :: -> anisotropic XC          0.015241943790 Eh    ::
         :: -> dispersion             -0.004673137555 Eh    ::
         :: repulsion energy           0.159807938413 Eh    ::
         :: add. restraining           0.000000000000 Eh    ::
         :: total charge              -0.000000000000 e     ::
         :::::::::::::::::::::::::::::::::::::::::::::::::::::

           ------------------------------------------------- 
          |                Numerical Hessian                |
           ------------------------------------------------- 
step length          :   0.00500
SCC accuracy         :   0.30000
Hessian scale factor :   1.00000
frozen atoms in %    :   0.00000    0
RMS gradient         :   0.00003
estimated CPU  time      0.01 min
estimated wall time      0.00 min

writing file <hessian>.

 projected vibrational frequencies (cm⁻¹)
eigval :       -0.00    -0.00    -0.00    -0.00     0.00     0.00
eigval :      195.11   259.69   283.74   410.21   415.94   523.63
eigval :      834.15   889.27   927.42   948.48  1008.17  1021.18
eigval :     1078.14  1161.07  1282.93  1300.70  1340.92  1540.18
eigval :     1559.61  1564.76  2924.70  3372.55  3390.04  3395.42
eigval :     3425.49  3439.16  3446.65
           -------------------------------------------------
          |                Property Printout                |
           -------------------------------------------------

    * Orbital Energies and Occupations

         #    Occupation            Energy/Eh            Energy/eV
      -------------------------------------------------------------
         1        2.0000           -0.6516115             -17.7313
         2        2.0000           -0.6078662             -16.5409
         3        2.0000           -0.6036537             -16.4263
         4        2.0000           -0.5766845             -15.6924
         5        2.0000           -0.5459565             -14.8562
         6        2.0000           -0.5293147             -14.4034
         7        2.0000           -0.5146941             -14.0055
         8        2.0000           -0.5039247             -13.7125
         9        2.0000           -0.4775368             -12.9944
        10        2.0000           -0.4509731             -12.2716
        11        2.0000           -0.4006387             -10.9019
        12        2.0000           -0.3753416             -10.2136
        13        2.0000           -0.3650280              -9.9329 (HOMO)
        14                          0.0355143               0.9664 (LUMO)
        15                          0.0509425               1.3862
        16                          0.0848470               2.3088
        17                          0.1013298               2.7573
        18                          0.1375532               3.7430
        19                          0.1679983               4.5715
        20                          0.2171922               5.9101
        21                          0.2232220               6.0742
        22                          0.2522334               6.8636
        23                          0.2774378               7.5495
      -------------------------------------------------------------
                  HL-Gap            0.4005423 Eh           10.8993 eV
             Fermi-level           -0.1647569 Eh           -4.4833 eV

     #   Z          covCN         q      C6AA      α(0)
     1   7 N        2.637    -0.344    28.860     7.979
     2   1 H        0.860     0.135     1.511     1.926
     3   1 H        0.860     0.146     1.430     1.873
     4   1 H        0.860     0.157     1.356     1.824
     5   7 N        2.635    -0.358    29.216     8.028
     6   1 H        0.860     0.135     1.504     1.921
     7   1 H        0.860     0.142     1.456     1.890
     8   1 H        0.860     0.143     1.450     1.887
     9   6 C        3.646     0.196    17.798     6.063
    10   7 N        2.630    -0.387    30.003     8.135
    11   1 H        0.924     0.035     2.520     2.483

 Mol. C6AA /au·bohr⁶  :        855.277399
 Mol. C8AA /au·bohr⁸  :      16774.750107
 Mol. α(0) /au        :         44.007437


Wiberg/Mayer (AO) data.
largest (>0.10) Wiberg bond orders for each atom

 ---------------------------------------------------------------------------
     #   Z sym  total        # sym  WBO       # sym  WBO       # sym  WBO
 ---------------------------------------------------------------------------
     1   7 N    3.025 --     9 C    1.028     3 H    0.961     4 H    0.960
     2   1 H    0.982 --    10 N    0.965
     3   1 H    0.979 --     1 N    0.961
     4   1 H    0.975 --     1 N    0.960
     5   7 N    3.024 --     9 C    1.012     7 H    0.965     8 H    0.962
     6   1 H    0.982 --    10 N    0.967
     7   1 H    0.980 --     5 N    0.965
     8   1 H    0.980 --     5 N    0.962
     9   6 C    3.974 --     1 N    1.028     5 N    1.012    10 N    0.975
                            11 H    0.957
    10   7 N    3.005 --     9 C    0.975     6 H    0.967     2 H    0.965
    11   1 H    0.999 --     9 C    0.957
 ---------------------------------------------------------------------------

Topologies differ in total number of bonds
Writing topology from bond orders to xtbtopo.mol

molecular dipole:
                 x           y           z       tot (Debye)
 q only:        0.134       0.022      -0.347
   full:        0.539       0.009      -1.025       2.943
molecular quadrupole (traceless):
                xx          xy          yy          xz          yz          zz
 q only:        2.721       1.211      -2.150      -1.875      -2.240      -0.571
  q+dip:        7.282       2.044      -6.324      -6.047      -5.256      -0.958
   full:        7.610       2.088      -6.362      -6.004      -5.331      -1.248

           -------------------------------------------------
          |                Geometry Summary                 |
           -------------------------------------------------

      molecular mass/u    :       61.0864308
   center of mass at/Å    :        2.4307299       0.2068022      -0.4067303
  moments of inertia/u·Å² :        0.5710003E+02   0.5777326E+02   0.9947437E+02
rotational constants/cm⁻¹ :        0.2952298E+00   0.2917895E+00   0.1694671E+00

 * 10 selected distances

     #   Z          #   Z                                           value/Å
     1   7 N        3   1 H                                       1.0150309
     1   7 N        4   1 H                                       1.0122168 (min)
     5   7 N        7   1 H                                       1.0123788
     5   7 N        8   1 H                                       1.0142684
     1   7 N        9   6 C                                       1.4373094
     5   7 N        9   6 C                                       1.4453417
     2   1 H       10   7 N                                       1.0164200
     6   1 H       10   7 N                                       1.0130729
     9   6 C       10   7 N                                       1.4675208 (max)
     9   6 C       11   1 H                                       1.0973251

 * 3 distinct bonds (by element types)

   Z      Z             #   av. dist./Å        max./Å        min./Å
   1 H    6 C           1     1.0973251     1.0973251     1.0973251
   1 H    7 N           6     1.0138980     1.0164200     1.0122168
   6 C    7 N           3     1.4500573     1.4675208     1.4373094

           -------------------------------------------------
          |               Frequency Printout                |
           -------------------------------------------------
 projected vibrational frequencies (cm⁻¹)
eigval :       -0.00    -0.00    -0.00    -0.00     0.00     0.00
eigval :      195.11   259.69   283.74   410.21   415.94   523.63
eigval :      834.15   889.27   927.42   948.48  1008.17  1021.18
eigval :     1078.14  1161.07  1282.93  1300.70  1340.92  1540.18
eigval :     1559.61  1564.76  2924.70  3372.55  3390.04  3395.42
eigval :     3425.49  3439.16  3446.65
 reduced masses (amu)
   1: 11.25   2: 12.06   3: 11.38   4: 11.04   5: 11.74   6: 11.33   7:  1.72   8:  1.38
   9:  1.84  10:  9.60  11:  9.72  12:  7.90  13:  4.32  14: 10.43  15:  5.77  16:  6.24
  17:  6.48  18:  2.98  19:  6.36  20:  7.72  21:  5.83  22:  2.76  23:  4.45  24:  2.14
  25:  2.12  26:  2.22  27:  1.72  28:  1.60  29:  1.63  30:  1.55  31:  1.98  32:  2.01
  33:  1.97
 IR intensities (km·mol⁻¹)
   1:  2.55   2:  0.33   3:  0.15   4:  3.60   5:  0.01   6:  4.31   7: 22.66   8:  9.60
   9:111.90  10: 21.88  11:  2.82  12:  6.80  13:273.71  14: 15.94  15:183.70  16: 22.70
  17:123.09  18: 18.96  19:190.77  20: 95.20  21: 22.85  22: 31.05  23: 47.24  24: 49.94
  25: 33.35  26: 21.00  27: 53.48  28: 15.90  29:  8.55  30:  9.34  31: 10.88  32: 10.20
  33:  5.05
 Raman intensities (Ä⁴*amu⁻¹)
   1:  0.00   2:  0.00   3:  0.00   4:  0.00   5:  0.00   6:  0.00   7:  0.00   8:  0.00
   9:  0.00  10:  0.00  11:  0.00  12:  0.00  13:  0.00  14:  0.00  15:  0.00  16:  0.00
  17:  0.00  18:  0.00  19:  0.00  20:  0.00  21:  0.00  22:  0.00  23:  0.00  24:  0.00
  25:  0.00  26:  0.00  27:  0.00  28:  0.00  29:  0.00  30:  0.00  31:  0.00  32:  0.00
  33:  0.00
 output can be read by thermo (or use thermo option).
 writing <g98.out> molden fake output.
 recommended (thermochemical) frequency scaling factor: 1.0
           -------------------------------------------------
          |             Thermodynamic Functions             |
           -------------------------------------------------

Refinement of some symmetry elements was terminated before convergence was reached.
Some symmetry elements may remain unidentified.
Molecule has no symmetry elements
It seems to be the C1 point group
c1  symmetry found (for desy threshold:  0.10E+00) used in thermo

          ...................................................
          :                      SETUP                      :
          :.................................................:
          :  # frequencies                          27      :
          :  # imaginary freq.                       0      :
          :  linear?                             false      :
          :  only rotor calc.                    false      :
          :  symmetry                               c1      :
          :  rotational number                       1      :
          :  scaling factor                  1.0000000      :
          :  rotor cutoff                   50.0000000 cm⁻¹ :
          :  imag. cutoff                  -20.0000000 cm⁻¹ :
          :.................................................:

    mode    ω/cm⁻¹     T·S(HO)/kcal·mol⁻¹    T·S(FR)/kcal·mol⁻¹   T·S(vib)
   ------------------------------------------------------------------------
       1    195.11    -0.64958 ( 99.57%)    -0.65284 (  0.43%)    -0.64959
       2    259.69    -0.49608 ( 99.86%)    -0.56823 (  0.14%)    -0.49618
       3    283.74    -0.45052 ( 99.90%)    -0.54202 (  0.10%)    -0.45061
   ------------------------------------------------------------------------

   temp. (K)  partition function   enthalpy   heat capacity  entropy
                                   cal/mol     cal/K/mol   cal/K/mol   J/K/mol
 298.15  VIB   4.88                 1671.056     13.258      8.756
         ROT  0.438E+05              888.752      2.981     24.218
         INT  0.214E+06             2559.809     16.239     32.974
         TR   0.462E+27             1481.254      4.968     38.231
         TOT                        4041.0624    21.2070    71.2052   297.9226

       T/K    H(0)-H(T)+PV         H(T)/Eh          T*S/Eh         G(T)/Eh
   ------------------------------------------------------------------------
    298.15    0.643984E-02    0.101985E+00    0.338319E-01    0.681527E-01
   ------------------------------------------------------------------------

         :::::::::::::::::::::::::::::::::::::::::::::::::::::
         ::                  THERMODYNAMIC                  ::
         :::::::::::::::::::::::::::::::::::::::::::::::::::::
         :: total free energy         -14.371878861876 Eh   ::
         ::.................................................::
         :: total energy              -14.440031565125 Eh   ::
         :: zero point energy           0.095544753529 Eh   ::
         :: G(RRHO) w/o ZPVE           -0.027392050280 Eh   ::
         :: G(RRHO) contrib.            0.068152703249 Eh   ::
         :::::::::::::::::::::::::::::::::::::::::::::::::::::

optimized geometry written to: xtbopt.xyz


           -------------------------------------------------
          | TOTAL ENERGY              -14.440031565125 Eh   |
          | TOTAL ENTHALPY            -14.338046968678 Eh   |
          | TOTAL FREE ENERGY         -14.371878861876 Eh   |
          | GRADIENT NORM               0.000025110357 Eh/α |
          | HOMO-LUMO GAP              10.899311059053 eV   |
           -------------------------------------------------

------------------------------------------------------------------------
 * finished run on 2025/01/10 at 14:24:09.790     
------------------------------------------------------------------------
 total:
 * wall-time:     0 d,  0 h,  0 min,  0.072 sec
 *  cpu-time:     0 d,  0 h,  0 min,  0.541 sec
 * ratio c/w:     7.537 speedup
 SCF:
 * wall-time:     0 d,  0 h,  0 min,  0.005 sec
 *  cpu-time:     0 d,  0 h,  0 min,  0.038 sec
 * ratio c/w:     7.610 speedup
 ANC optimizer:
 * wall-time:     0 d,  0 h,  0 min,  0.007 sec
 *  cpu-time:     0 d,  0 h,  0 min,  0.060 sec
 * ratio c/w:     7.973 speedup
 analytical hessian:
 * wall-time:     0 d,  0 h,  0 min,  0.044 sec
 *  cpu-time:     0 d,  0 h,  0 min,  0.348 sec
 * ratio c/w:     7.946 speedup

normal termination of xtb
