      -----------------------------------------------------------      
     |                   =====================                   |     
     |                           x T B                           |     
     |                   =====================                   |     
     |                         S. Grimme                         |     
     |          Mulliken Center for Theoretical Chemistry        |     
     |                    University of Bonn                     |     
      -----------------------------------------------------------      

   * xtb version 6.7.1 (edcfbbe) compiled by 'albert@albert-system' on 2024-07-22

   xtb is free software: you can redistribute it and/or modify it under
   the terms of the GNU Lesser General Public License as published by
   the Free Software Foundation, either version 3 of the License, or
   (at your option) any later version.
   
   xtb is distributed in the hope that it will be useful,
   but WITHOUT ANY WARRANTY; without even the implied warranty of
   MERCHANTABILITY or FITNESS FOR A PARTICULAR PURPOSE.  See the
   GNU Lesser General Public License for more details.
   
   Cite this work as:
   * C. Bannwarth, E. Caldeweyher, S. Ehlert, A. Hansen, P. Pracht,
     J. Seibert, S. Spicher, S. Grimme, WIREs Comput. Mol. Sci., 2020, 11,
     e01493. DOI: 10.1002/wcms.1493
   
   for GFN2-xTB:
   * C. Bannwarth, S. Ehlert and S. Grimme., J. Chem. Theory Comput., 2019,
     15, 1652-1671. DOI: 10.1021/acs.jctc.8b01176
   for GFN1-xTB:
   * S. Grimme, C. Bannwarth, P. Shushkov, J. Chem. Theory Comput., 2017,
     13, 1989-2009. DOI: 10.1021/acs.jctc.7b00118
   for GFN0-xTB:
   * P. Pracht, E. Caldeweyher, S. Ehlert, S. Grimme, ChemRxiv, 2019, preprint.
     DOI: 10.26434/chemrxiv.8326202.v1
   for GFN-FF:
   * S. Spicher and S. Grimme, Angew. Chem. Int. Ed., 2020, 59, 15665-15673.
     DOI: 10.1002/anie.202004239
   
   for ALPB and GBSA implicit solvation:
   * S. Ehlert, M. Stahn, S. Spicher, S. Grimme, J. Chem. Theory Comput.,
     2021, 17, 4250-4261. DOI: 10.1021/acs.jctc.1c00471
   
   for ddCOSMO and CPCM-X implicit solvation:
   * M. Stahn, S. Ehlert, S. Grimme, J. Phys. Chem. A,
     2023, XX, XXXX-XXXX. DOI: 10.1021/acs.jpca.3c04382
   
   for DFT-D4:
   * E. Caldeweyher, C. Bannwarth and S. Grimme, J. Chem. Phys., 2017,
     147, 034112. DOI: 10.1063/1.4993215
   * E. Caldeweyher, S. Ehlert, A. Hansen, H. Neugebauer, S. Spicher,
     C. Bannwarth and S. Grimme, J. Chem. Phys., 2019, 150, 154122.
     DOI: 10.1063/1.5090222
   * E. Caldeweyher, J.-M. Mewes, S. Ehlert and S. Grimme, Phys. Chem. Chem. Phys.
     2020, 22, 8499-8512. DOI: 10.1039/D0CP00502A
   
   for sTDA-xTB:
   * S. Grimme and C. Bannwarth, J. Chem. Phys., 2016, 145, 054103.
     DOI: 10.1063/1.4959605
   
   in the mass-spec context:
   * V. Asgeirsson, C. Bauer and S. Grimme, Chem. Sci., 2017, 8, 4879.
     DOI: 10.1039/c7sc00601b
   * J. Koopman and S. Grimme, ACS Omega 2019, 4, 12, 15120-15133.
     DOI: 10.1021/acsomega.9b02011
   
   for metadynamics refer to:
   * S. Grimme, J. Chem. Theory Comput., 2019, 155, 2847-2862
     DOI: 10.1021/acs.jctc.9b00143
   
   for SPH calculations refer to:
   * S. Spicher and S. Grimme, J. Chem. Theory Comput., 2021, 17, 1701-1714
     DOI: 10.1021/acs.jctc.0c01306
   
   for ONIOM refer to:
   * C. Plett, A. Katbashev, S. Ehlert, S. Grimme, M. Bursch,
     Phys. Chem. Chem. Phys., 2023, 25, 17860-17868. DOI: 10.1039/D3CP02178E
   
   for DIPRO refer to:
   * J. Kohn, N. Gildemeister, S. Grimme, D. Fazzi, A. Hansen,
     J. Chem. Phys., 2023, just accepted.
   
   for PTB refer to:
   * S. Grimme, M. Mueller, A. Hansen, J. Chem. Phys., 2023, 158, 124111.
     DOI: 10.1063/5.0137838
   
   with help from (in alphabetical order)
   P. Atkinson, C. Bannwarth, F. Bohle, G. Brandenburg, E. Caldeweyher
   M. Checinski, S. Dohm, S. Ehlert, S. Ehrlich, I. Gerasimov, C. Hölzer
   A. Katbashev, J. Kohn, J. Koopman, C. Lavigne, S. Lehtola, F. März, M. Müller,
   F. Musil, H. Neugebauer, J. Pisarek, C. Plett, P. Pracht, F. Pultar,
   J. Seibert, P. Shushkov, S. Spicher, M. Stahn, M. Steiner, T. Strunk,
   J. Stückrath, T. Rose, and J. Unsleber
   
 * started run on 2025/01/10 at 14:24:12.702     
   ID    Z sym.   atoms
    1    8 O      1, 4
    2    1 H      2, 3, 5, 6, 9
    3    6 C      7
    4    7 N      8

           -------------------------------------------------
          |                Calculation Setup                |
           -------------------------------------------------

          program call               : /home/adpal/xtb-dist/bin/xtb ./results/p_{0,14}_coordinatesxTB.xyz --ohess --uhf 1 --parallel 8
          coordinate file            : ./results/p_{0,14}_coordinatesxTB.xyz
          omp threads                :                     8


           -------------------------------------------------
          |                 G F N 2 - x T B                 |
           -------------------------------------------------

        Reference                      10.1021/acs.jctc.8b01176
      * Hamiltonian:
        H0-scaling (s, p, d)           1.850000    2.230000    2.230000
        zeta-weighting                 0.500000
      * Dispersion:
        s8                             2.700000
        a1                             0.520000
        a2                             5.000000
        s9                             5.000000
      * Repulsion:
        kExp                           1.500000    1.000000
        rExp                           1.000000
      * Coulomb:
        alpha                          2.000000
        third order                    shell-resolved
        anisotropic                    true
        a3                             3.000000
        a5                             4.000000
        cn-shift                       1.200000
        cn-exp                         4.000000
        max-rad                        5.000000

q/qsh data taken from xtbrestart
CAMM data taken from xtbrestart

          ...................................................
          :                      SETUP                      :
          :.................................................:
          :  # basis functions                  21          :
          :  # atomic orbitals                  21          :
          :  # shells                           13          :
          :  # electrons                        26          :
          :  max. iterations                   250          :
          :  Hamiltonian                  GFN2-xTB          :
          :  restarted?                       true          :
          :  GBSA solvation                  false          :
          :  PC potential                    false          :
          :  electronic temp.          300.0000000     K    :
          :  accuracy                    1.0000000          :
          :  -> integral cutoff          0.2500000E+02      :
          :  -> integral neglect         0.1000000E-07      :
          :  -> SCF convergence          0.1000000E-05 Eh   :
          :  -> wf. convergence          0.1000000E-03 e    :
          :  Broyden damping             0.4000000          :
          :  net charge                          0          :
          :  unpaired electrons                  1          :
          ...................................................

 iter      E             dE          RMSdq      gap      omega  full diag
   1    -15.8467155 -0.158467E+02  0.498E-07   12.23       0.0  T
   2    -15.8467155  0.000000E+00  0.304E-07   12.23  100000.0  T
   3    -15.8467155  0.532907E-14  0.793E-08   12.23  100000.0  T

   *** convergence criteria satisfied after 3 iterations ***

         #    Occupation            Energy/Eh            Energy/eV
      -------------------------------------------------------------
         1        2.0000           -0.7149828             -19.4557
       ...           ...                  ...                  ...
         7        2.0000           -0.5598486             -15.2343
         8        2.0000           -0.5397337             -14.6869
         9        2.0000           -0.5024743             -13.6730
        10        2.0000           -0.4787776             -13.0282
        11        2.0000           -0.4486054             -12.2072
        12        2.0000           -0.4397778             -11.9670
        13        2.0000           -0.4014657             -10.9244 (HOMO)
        14                          0.0480451               1.3074 (LUMO)
        15                          0.0619643               1.6861
        16                          0.0882259               2.4007
        17                          0.1133984               3.0857
        18                          0.1553115               4.2262
       ...                                ...                  ...
        21                          0.2558311               6.9615
      -------------------------------------------------------------
                  HL-Gap            0.4495108 Eh           12.2318 eV
             Fermi-level           -0.1767103 Eh           -4.8085 eV

 SCC (total)                   0 d,  0 h,  0 min,  0.007 sec
 SCC setup                      ...        0 min,  0.000 sec (  4.328%)
 Dispersion                     ...        0 min,  0.000 sec (  1.629%)
 classical contributions        ...        0 min,  0.000 sec (  0.375%)
 integral evaluation            ...        0 min,  0.000 sec (  5.108%)
 iterations                     ...        0 min,  0.005 sec ( 75.903%)
 molecular gradient             ...        0 min,  0.001 sec (  8.197%)
 printout                       ...        0 min,  0.000 sec (  3.730%)

         :::::::::::::::::::::::::::::::::::::::::::::::::::::
         ::                     SUMMARY                     ::
         :::::::::::::::::::::::::::::::::::::::::::::::::::::
         :: total energy             -15.733197525830 Eh    ::
         :: gradient norm              0.000022764365 Eh/a0 ::
         :: HOMO-LUMO gap             12.231810716678 eV    ::
         ::.................................................::
         :: SCC energy               -15.846714611955 Eh    ::
         :: -> isotropic ES            0.063665871328 Eh    ::
         :: -> anisotropic ES         -0.002171022339 Eh    ::
         :: -> anisotropic XC          0.001023018160 Eh    ::
         :: -> dispersion             -0.003202994795 Eh    ::
         :: repulsion energy           0.113517086125 Eh    ::
         :: add. restraining           0.000000000000 Eh    ::
         :: total charge               0.000000000000 e     ::
         :::::::::::::::::::::::::::::::::::::::::::::::::::::

      ----------------------------------------------------------- 
     |                   =====================                   |
     |                        A N C O P T                        |
     |                   =====================                   |
     |               Approximate Normal Coordinate               |
     |                Rational Function Optimizer                |
      ----------------------------------------------------------- 
      ----------------------------------------------------------- 
     |                   =====================                   |
     |                        A N C O P T                        |
     |                   =====================                   |
     |               Approximate Normal Coordinate               |
     |                Rational Function Optimizer                |
      ----------------------------------------------------------- 

          ...................................................
          :                      SETUP                      :
          :.................................................:
          :   optimization level            normal          :
          :   max. optcycles                   200          :
          :   ANC micro-cycles                  20          :
          :   degrees of freedom                21          :
          :.................................................:
          :   RF solver                   davidson          :
          :   write xtbopt.log                true          :
          :   linear?                        false          :
          :   energy convergence         0.5000000E-05 Eh   :
          :   grad. convergence          0.1000000E-02 Eh/α :
          :   maxmium RF displ.          1.0000000          :
          :   Hlow (freq-cutoff)         0.1000000E-01      :
          :   Hmax (freq-cutoff)         5.0000000          :
          :   S6 in model hess.         20.0000000          :
          ...................................................

generating ANC from exact Hessian ...
Using Lindh-Hessian (1995)
 Shifting diagonal of input Hessian by   0.000000000000000E+000
 Lowest  eigenvalues of input Hessian
    0.000000    0.000000    0.000000    0.000000    0.000000    0.000000
    0.023167    0.025017    0.034427    0.037906    0.075942    0.086623
    0.105109    0.133002    0.146096    0.190241    0.238300    0.290991
 Highest eigenvalues
    1.135920    1.252643    1.338947    1.438685    1.594005    1.677644
 

........................................................................
.............................. CYCLE    1 ..............................
........................................................................

 iter      E             dE          RMSdq      gap      omega  full diag
   1    -15.8467155 -0.158467E+02  0.317E-08   12.23       0.0  T
   2    -15.8467155  0.106581E-13  0.194E-08   12.23  100000.0  T
   3    -15.8467155 -0.124345E-13  0.784E-09   12.23  100000.0  T
     SCC iter.                  ...        0 min,  0.001 sec
     gradient                   ...        0 min,  0.001 sec
 * total energy  :   -15.7331975 Eh     change       -0.1776357E-13 Eh
   gradient norm :     0.0000228 Eh/α   predicted     0.0000000E+00 (-100.00%)
   displ. norm   :     0.0001487 α      lambda       -0.4811166E-08
   maximum displ.:     0.0000946 α      in ANC's #1, #4, #3, ...

   *** GEOMETRY OPTIMIZATION CONVERGED AFTER 1 ITERATIONS ***

------------------------------------------------------------------------
 total energy gain   :        -0.0000000 Eh       -0.0000 kcal/mol
 total RMSD          :         0.0000000 a0        0.0000 Å
 total power (kW/mol):        -0.0000000 (step)   -0.0000 (real)
------------------------------------------------------------------------

 ANCopt (total)                0 d,  0 h,  0 min,  0.004 sec
 optimizer setup                ...        0 min,  0.000 sec (  6.272%)
 model hessian                  ...        0 min,  0.001 sec ( 30.983%)
 ANC generation                 ...        0 min,  0.000 sec (  8.205%)
 coordinate transformation      ...        0 min,  0.000 sec (  0.478%)
 single point calculation       ...        0 min,  0.002 sec ( 43.168%)
 optimization log               ...        0 min,  0.000 sec (  4.555%)
 hessian update                 ...        0 min,  0.000 sec (  0.045%)
 rational function              ...        0 min,  0.000 sec (  1.694%)

================
 final structure:
================
9
 xtb: 6.7.1 (edcfbbe)
O            1.38045391657495        0.33905723464364       -0.06132135518645
H            2.58839656754731       -0.76374990082978        2.04106841387854
H            0.82850071659097       -0.20081469207130        0.51857476104810
O            3.12818300391219       -1.13878211867750       -0.31567357063856
H            3.93480047240854        0.14772199212314        1.84005045777096
H            2.89322526751805       -1.17283175948231       -1.24928806962599
C            2.71301538643512        0.09771199598964        0.22867215346033
N            2.94523250103584        0.09756946666664        1.63777358067914
H            3.27139216797703        0.92683778163778       -0.23186637138606
 
 Bond Distances (Angstroems)
 ---------------------------
O1-H3=0.9656         O1-C7=1.3849         H2-N8=1.0158         H3-O1=0.9656         O4-H6=0.9633         O4-C7=1.4134         
H5-N8=1.0113         H6-O4=0.9633         C7-O1=1.3849         C7-O4=1.4134         C7-N8=1.4281         C7-H9=1.1006         
N8-H2=1.0158         N8-H5=1.0113         N8-C7=1.4281         H9-C7=1.1006         
 C  H  Rav=1.1006 sigma=0.0000  Rmin=1.1006  Rmax=1.1006     1
 N  H  Rav=1.0135 sigma=0.0023  Rmin=1.0113  Rmax=1.0158     2
 N  C  Rav=1.4281 sigma=0.0000  Rmin=1.4281  Rmax=1.4281     1
 O  H  Rav=0.9645 sigma=0.0011  Rmin=0.9633  Rmax=0.9656     2
 O  C  Rav=1.3992 sigma=0.0142  Rmin=1.3849  Rmax=1.4134     2
 
 selected bond angles (degree)
 --------------------
C7-O1-H3=109.08                C7-O4-H6=109.42                O4-C7-O1=110.76                N8-C7-O1=111.29                
N8-C7-O4=109.40                H9-C7-O1=105.62                H9-C7-O4=110.42                H9-C7-N8=109.30                
H5-N8-H2=107.84                C7-N8-H2=109.55                C7-N8-H5=110.88                
 
 selected dihedral angles (degree)
 ---------------------------------
O4-C7-O1-H3= 76.54            N8-C7-O1-H3=314.60            H9-C7-O1-H3=196.10            O1-C7-O4-H6= 51.47            
N8-C7-O4-H6=174.51            H9-C7-O4-H6=294.83            H2-N8-C7-O1= 74.91            H2-N8-C7-O4=312.19            
H2-N8-C7-H9=191.18            H5-N8-C7-O1=193.82            H5-N8-C7-O4= 71.10            H5-N8-C7-H9=310.09            
           -------------------------------------------------
          |                Final Singlepoint                |
           -------------------------------------------------

          ...................................................
          :                      SETUP                      :
          :.................................................:
          :  # basis functions                  21          :
          :  # atomic orbitals                  21          :
          :  # shells                           13          :
          :  # electrons                        26          :
          :  max. iterations                   250          :
          :  Hamiltonian                  GFN2-xTB          :
          :  restarted?                      false          :
          :  GBSA solvation                  false          :
          :  PC potential                    false          :
          :  electronic temp.          300.0000000     K    :
          :  accuracy                    1.0000000          :
          :  -> integral cutoff          0.2500000E+02      :
          :  -> integral neglect         0.1000000E-07      :
          :  -> SCF convergence          0.1000000E-05 Eh   :
          :  -> wf. convergence          0.1000000E-03 e    :
          :  Broyden damping             0.4000000          :
          :  net charge                          0          :
          :  unpaired electrons                  1          :
          ...................................................

 iter      E             dE          RMSdq      gap      omega  full diag
   1    -15.8467155 -0.158467E+02  0.286E-09   12.23       0.0  T
   2    -15.8467155 -0.142109E-13  0.172E-09   12.23  100000.0  T
   3    -15.8467155  0.195399E-13  0.538E-10   12.23  100000.0  T

   *** convergence criteria satisfied after 3 iterations ***

         #    Occupation            Energy/Eh            Energy/eV
      -------------------------------------------------------------
         1        2.0000           -0.7149828             -19.4557
       ...           ...                  ...                  ...
         7        2.0000           -0.5598486             -15.2343
         8        2.0000           -0.5397337             -14.6869
         9        2.0000           -0.5024743             -13.6730
        10        2.0000           -0.4787776             -13.0282
        11        2.0000           -0.4486054             -12.2072
        12        2.0000           -0.4397778             -11.9670
        13        2.0000           -0.4014657             -10.9244 (HOMO)
        14                          0.0480451               1.3074 (LUMO)
        15                          0.0619643               1.6861
        16                          0.0882259               2.4007
        17                          0.1133984               3.0857
        18                          0.1553115               4.2262
       ...                                ...                  ...
        21                          0.2558311               6.9615
      -------------------------------------------------------------
                  HL-Gap            0.4495108 Eh           12.2318 eV
             Fermi-level           -0.1767103 Eh           -4.8085 eV

 SCC (total)                   0 d,  0 h,  0 min,  0.002 sec
 SCC setup                      ...        0 min,  0.000 sec (  6.732%)
 Dispersion                     ...        0 min,  0.000 sec (  1.589%)
 classical contributions        ...        0 min,  0.000 sec (  0.661%)
 integral evaluation            ...        0 min,  0.000 sec ( 14.187%)
 iterations                     ...        0 min,  0.001 sec ( 36.159%)
 molecular gradient             ...        0 min,  0.000 sec ( 31.535%)
 printout                       ...        0 min,  0.000 sec (  7.785%)

         :::::::::::::::::::::::::::::::::::::::::::::::::::::
         ::                     SUMMARY                     ::
         :::::::::::::::::::::::::::::::::::::::::::::::::::::
         :: total energy             -15.733197525830 Eh    ::
         :: gradient norm              0.000022764460 Eh/a0 ::
         :: HOMO-LUMO gap             12.231810714732 eV    ::
         ::.................................................::
         :: SCC energy               -15.846714611955 Eh    ::
         :: -> isotropic ES            0.063665870562 Eh    ::
         :: -> anisotropic ES         -0.002171022304 Eh    ::
         :: -> anisotropic XC          0.001023018150 Eh    ::
         :: -> dispersion             -0.003202994793 Eh    ::
         :: repulsion energy           0.113517086125 Eh    ::
         :: add. restraining           0.000000000000 Eh    ::
         :: total charge               0.000000000000 e     ::
         :::::::::::::::::::::::::::::::::::::::::::::::::::::

           ------------------------------------------------- 
          |                Numerical Hessian                |
           ------------------------------------------------- 
step length          :   0.00500
SCC accuracy         :   0.30000
Hessian scale factor :   1.00000
frozen atoms in %    :   0.00000    0
RMS gradient         :   0.00002
estimated CPU  time      0.00 min
estimated wall time      0.00 min

writing file <hessian>.

 projected vibrational frequencies (cm⁻¹)
eigval :       -0.00    -0.00     0.00     0.00     0.00     0.00
eigval :      219.32   289.72   344.64   422.37   487.68   572.30
eigval :      907.87   950.52  1024.41  1055.90  1109.21  1201.90
eigval :     1274.15  1313.31  1357.90  1552.18  2896.85  3392.95
eigval :     3457.03  3521.08  3555.40
           -------------------------------------------------
          |                Property Printout                |
           -------------------------------------------------

    * Orbital Energies and Occupations

         #    Occupation            Energy/Eh            Energy/eV
      -------------------------------------------------------------
         1        2.0000           -0.7149828             -19.4557
         2        2.0000           -0.7019664             -19.1015
         3        2.0000           -0.6572225             -17.8839
         4        2.0000           -0.6255132             -17.0211
         5        2.0000           -0.5911975             -16.0873
         6        2.0000           -0.5733879             -15.6027
         7        2.0000           -0.5598486             -15.2343
         8        2.0000           -0.5397337             -14.6869
         9        2.0000           -0.5024743             -13.6730
        10        2.0000           -0.4787776             -13.0282
        11        2.0000           -0.4486054             -12.2072
        12        2.0000           -0.4397778             -11.9670
        13        2.0000           -0.4014657             -10.9244 (HOMO)
        14                          0.0480451               1.3074 (LUMO)
        15                          0.0619643               1.6861
        16                          0.0882259               2.4007
        17                          0.1133984               3.0857
        18                          0.1553115               4.2262
        19                          0.1878709               5.1122
        20                          0.2413251               6.5668
        21                          0.2558311               6.9615
      -------------------------------------------------------------
                  HL-Gap            0.4495108 Eh           12.2318 eV
             Fermi-level           -0.1767103 Eh           -4.8085 eV

     #   Z          covCN         q      C6AA      α(0)
     1   8 O        1.657    -0.448    21.812     6.305
     2   1 H        0.860     0.165     1.302     1.788
     3   1 H        0.805     0.310     0.690     1.305
     4   8 O        1.655    -0.481    22.478     6.400
     5   1 H        0.860     0.164     1.309     1.792
     6   1 H        0.805     0.303     0.713     1.326
     7   6 C        3.533     0.319    16.770     6.014
     8   7 N        2.630    -0.360    29.297     8.039
     9   1 H        0.923     0.028     2.617     2.530

 Mol. C6AA /au·bohr⁶  :        596.915266
 Mol. C8AA /au·bohr⁸  :      11851.142068
 Mol. α(0) /au        :         35.498602


Wiberg/Mayer (AO) data.
largest (>0.10) Wiberg bond orders for each atom

 ---------------------------------------------------------------------------
     #   Z sym  total        # sym  WBO       # sym  WBO       # sym  WBO
 ---------------------------------------------------------------------------
     1   8 O    1.986 --     7 C    1.001     3 H    0.883
     2   1 H    0.973 --     8 N    0.954
     3   1 H    0.904 --     1 O    0.883
     4   8 O    1.951 --     7 C    0.953     6 H    0.890
     5   1 H    0.973 --     8 N    0.958
     6   1 H    0.908 --     4 O    0.890
     7   6 C    3.938 --     8 N    1.032     1 O    1.001     4 O    0.953
                             9 H    0.949
     8   7 N    3.027 --     7 C    1.032     5 H    0.958     2 H    0.954
     9   1 H    0.999 --     7 C    0.949
 ---------------------------------------------------------------------------

Topologies differ in total number of bonds
Writing topology from bond orders to xtbtopo.mol

molecular dipole:
                 x           y           z       tot (Debye)
 q only:       -0.039      -0.193       0.146
   full:        0.078      -0.495       0.033       1.276
molecular quadrupole (traceless):
                xx          xy          yy          xz          yz          zz
 q only:        0.068       1.382      -2.508       0.274      -0.116       2.440
  q+dip:        1.640       0.886      -3.513      -0.798      -1.696       1.874
   full:        1.760       0.700      -3.757      -0.601      -1.619       1.996

           -------------------------------------------------
          |                Geometry Summary                 |
           -------------------------------------------------

      molecular mass/u    :       63.0559527
   center of mass at/Å    :        2.5310457      -0.1796337       0.3583455
  moments of inertia/u·Å² :        0.5216088E+02   0.5448280E+02   0.9386019E+02
rotational constants/cm⁻¹ :        0.3231854E+00   0.3094120E+00   0.1796036E+00

 * 8 selected distances

     #   Z          #   Z                                           value/Å
     1   8 O        3   1 H                                       0.9656054
     4   8 O        6   1 H                                       0.9633279 (min)
     1   8 O        7   6 C                                       1.3849419
     4   8 O        7   6 C                                       1.4133628
     2   1 H        8   7 N                                       1.0158001
     5   1 H        8   7 N                                       1.0112745
     7   6 C        8   7 N                                       1.4281078 (max)
     7   6 C        9   1 H                                       1.1006045

 * 5 distinct bonds (by element types)

   Z      Z             #   av. dist./Å        max./Å        min./Å
   1 H    6 C           1     1.1006045     1.1006045     1.1006045
   1 H    7 N           2     1.0135373     1.0158001     1.0112745
   6 C    7 N           1     1.4281078     1.4281078     1.4281078
   1 H    8 O           2     0.9644667     0.9656054     0.9633279
   6 C    8 O           2     1.3991524     1.4133628     1.3849419

           -------------------------------------------------
          |               Frequency Printout                |
           -------------------------------------------------
 projected vibrational frequencies (cm⁻¹)
eigval :       -0.00    -0.00     0.00     0.00     0.00     0.00
eigval :      219.32   289.72   344.64   422.37   487.68   572.30
eigval :      907.87   950.52  1024.41  1055.90  1109.21  1201.90
eigval :     1274.15  1313.31  1357.90  1552.18  2896.85  3392.95
eigval :     3457.03  3521.08  3555.40
 reduced masses (amu)
   1: 13.78   2: 14.39   3: 13.07   4: 13.75   5: 13.01   6: 11.32   7:  1.77   8:  2.76
   9:  2.31  10: 11.03  11: 11.97  12: 11.11  13:  8.43  14:  9.93  15:  9.74  16:  6.70
  17:  5.35  18:  4.96  19:  5.17  20:  2.99  21:  4.38  22:  2.22  23:  1.71  24:  1.67
  25:  1.93  26:  1.86  27:  1.86
 IR intensities (km·mol⁻¹)
   1:  0.47   2:  0.24   3:  0.34   4:  0.56   5:  0.25   6:  0.42   7: 48.69   8:157.27
   9:119.47  10: 30.46  11: 66.68  12: 38.33  13: 45.17  14: 75.89  15:318.09  16:154.35
  17:102.19  18:107.52  19: 76.91  20: 13.90  21:177.80  22: 52.92  23: 65.61  24:  3.63
  25:  0.19  26: 14.90  27: 13.37
 Raman intensities (Ä⁴*amu⁻¹)
   1:  0.00   2:  0.00   3:  0.00   4:  0.00   5:  0.00   6:  0.00   7:  0.00   8:  0.00
   9:  0.00  10:  0.00  11:  0.00  12:  0.00  13:  0.00  14:  0.00  15:  0.00  16:  0.00
  17:  0.00  18:  0.00  19:  0.00  20:  0.00  21:  0.00  22:  0.00  23:  0.00  24:  0.00
  25:  0.00  26:  0.00  27:  0.00
 output can be read by thermo (or use thermo option).
 writing <g98.out> molden fake output.
 recommended (thermochemical) frequency scaling factor: 1.0
           -------------------------------------------------
          |             Thermodynamic Functions             |
           -------------------------------------------------

Refinement of some symmetry elements was terminated before convergence was reached.
Some symmetry elements may remain unidentified.
Molecule has no symmetry elements
It seems to be the C1 point group
c1  symmetry found (for desy threshold:  0.10E+00) used in thermo

          ...................................................
          :                      SETUP                      :
          :.................................................:
          :  # frequencies                          21      :
          :  # imaginary freq.                       0      :
          :  linear?                             false      :
          :  only rotor calc.                    false      :
          :  symmetry                               c1      :
          :  rotational number                       1      :
          :  scaling factor                  1.0000000      :
          :  rotor cutoff                   50.0000000 cm⁻¹ :
          :  imag. cutoff                  -20.0000000 cm⁻¹ :
          :.................................................:

    mode    ω/cm⁻¹     T·S(HO)/kcal·mol⁻¹    T·S(FR)/kcal·mol⁻¹   T·S(vib)
   ------------------------------------------------------------------------
       1    219.32    -0.58578 ( 99.73%)    -0.61822 (  0.27%)    -0.58587
       2    289.72    -0.43994 ( 99.91%)    -0.53582 (  0.09%)    -0.44003
   ------------------------------------------------------------------------

   temp. (K)  partition function   enthalpy   heat capacity  entropy
                                   cal/mol     cal/K/mol   cal/K/mol   J/K/mol
 298.15  VIB   3.58                 1421.726     11.437      7.303
         ROT  0.395E+05              888.752      2.981     24.012
         INT  0.141E+06             2310.478     14.417     31.314
         TR   0.484E+27             1481.254      4.968     38.326
         TOT                        3791.7321    19.3856    69.6404   291.3754

       T/K    H(0)-H(T)+PV         H(T)/Eh          T*S/Eh         G(T)/Eh
   ------------------------------------------------------------------------
    298.15    0.604251E-02    0.764531E-01    0.330884E-01    0.433647E-01
   ------------------------------------------------------------------------

         :::::::::::::::::::::::::::::::::::::::::::::::::::::
         ::                  THERMODYNAMIC                  ::
         :::::::::::::::::::::::::::::::::::::::::::::::::::::
         :: total free energy         -15.689832795606 Eh   ::
         ::.................................................::
         :: total energy              -15.733197525830 Eh   ::
         :: zero point energy           0.070410617373 Eh   ::
         :: G(RRHO) w/o ZPVE           -0.027045887149 Eh   ::
         :: G(RRHO) contrib.            0.043364730224 Eh   ::
         :::::::::::::::::::::::::::::::::::::::::::::::::::::

optimized geometry written to: xtbopt.xyz


           -------------------------------------------------
          | TOTAL ENERGY              -15.733197525830 Eh   |
          | TOTAL ENTHALPY            -15.656744398737 Eh   |
          | TOTAL FREE ENERGY         -15.689832795606 Eh   |
          | GRADIENT NORM               0.000022761265 Eh/α |
          | HOMO-LUMO GAP              12.231810661272 eV   |
           -------------------------------------------------

------------------------------------------------------------------------
 * finished run on 2025/01/10 at 14:24:12.766     
------------------------------------------------------------------------
 total:
 * wall-time:     0 d,  0 h,  0 min,  0.063 sec
 *  cpu-time:     0 d,  0 h,  0 min,  0.461 sec
 * ratio c/w:     7.269 speedup
 SCF:
 * wall-time:     0 d,  0 h,  0 min,  0.007 sec
 *  cpu-time:     0 d,  0 h,  0 min,  0.055 sec
 * ratio c/w:     7.394 speedup
 ANC optimizer:
 * wall-time:     0 d,  0 h,  0 min,  0.007 sec
 *  cpu-time:     0 d,  0 h,  0 min,  0.054 sec
 * ratio c/w:     7.955 speedup
 analytical hessian:
 * wall-time:     0 d,  0 h,  0 min,  0.031 sec
 *  cpu-time:     0 d,  0 h,  0 min,  0.246 sec
 * ratio c/w:     7.975 speedup

normal termination of xtb
