      -----------------------------------------------------------      
     |                   =====================                   |     
     |                           x T B                           |     
     |                   =====================                   |     
     |                         S. Grimme                         |     
     |          Mulliken Center for Theoretical Chemistry        |     
     |                    University of Bonn                     |     
      -----------------------------------------------------------      

   * xtb version 6.7.1 (edcfbbe) compiled by 'albert@albert-system' on 2024-07-22

   xtb is free software: you can redistribute it and/or modify it under
   the terms of the GNU Lesser General Public License as published by
   the Free Software Foundation, either version 3 of the License, or
   (at your option) any later version.
   
   xtb is distributed in the hope that it will be useful,
   but WITHOUT ANY WARRANTY; without even the implied warranty of
   MERCHANTABILITY or FITNESS FOR A PARTICULAR PURPOSE.  See the
   GNU Lesser General Public License for more details.
   
   Cite this work as:
   * C. Bannwarth, E. Caldeweyher, S. Ehlert, A. Hansen, P. Pracht,
     J. Seibert, S. Spicher, S. Grimme, WIREs Comput. Mol. Sci., 2020, 11,
     e01493. DOI: 10.1002/wcms.1493
   
   for GFN2-xTB:
   * C. Bannwarth, S. Ehlert and S. Grimme., J. Chem. Theory Comput., 2019,
     15, 1652-1671. DOI: 10.1021/acs.jctc.8b01176
   for GFN1-xTB:
   * S. Grimme, C. Bannwarth, P. Shushkov, J. Chem. Theory Comput., 2017,
     13, 1989-2009. DOI: 10.1021/acs.jctc.7b00118
   for GFN0-xTB:
   * P. Pracht, E. Caldeweyher, S. Ehlert, S. Grimme, ChemRxiv, 2019, preprint.
     DOI: 10.26434/chemrxiv.8326202.v1
   for GFN-FF:
   * S. Spicher and S. Grimme, Angew. Chem. Int. Ed., 2020, 59, 15665-15673.
     DOI: 10.1002/anie.202004239
   
   for ALPB and GBSA implicit solvation:
   * S. Ehlert, M. Stahn, S. Spicher, S. Grimme, J. Chem. Theory Comput.,
     2021, 17, 4250-4261. DOI: 10.1021/acs.jctc.1c00471
   
   for ddCOSMO and CPCM-X implicit solvation:
   * M. Stahn, S. Ehlert, S. Grimme, J. Phys. Chem. A,
     2023, XX, XXXX-XXXX. DOI: 10.1021/acs.jpca.3c04382
   
   for DFT-D4:
   * E. Caldeweyher, C. Bannwarth and S. Grimme, J. Chem. Phys., 2017,
     147, 034112. DOI: 10.1063/1.4993215
   * E. Caldeweyher, S. Ehlert, A. Hansen, H. Neugebauer, S. Spicher,
     C. Bannwarth and S. Grimme, J. Chem. Phys., 2019, 150, 154122.
     DOI: 10.1063/1.5090222
   * E. Caldeweyher, J.-M. Mewes, S. Ehlert and S. Grimme, Phys. Chem. Chem. Phys.
     2020, 22, 8499-8512. DOI: 10.1039/D0CP00502A
   
   for sTDA-xTB:
   * S. Grimme and C. Bannwarth, J. Chem. Phys., 2016, 145, 054103.
     DOI: 10.1063/1.4959605
   
   in the mass-spec context:
   * V. Asgeirsson, C. Bauer and S. Grimme, Chem. Sci., 2017, 8, 4879.
     DOI: 10.1039/c7sc00601b
   * J. Koopman and S. Grimme, ACS Omega 2019, 4, 12, 15120-15133.
     DOI: 10.1021/acsomega.9b02011
   
   for metadynamics refer to:
   * S. Grimme, J. Chem. Theory Comput., 2019, 155, 2847-2862
     DOI: 10.1021/acs.jctc.9b00143
   
   for SPH calculations refer to:
   * S. Spicher and S. Grimme, J. Chem. Theory Comput., 2021, 17, 1701-1714
     DOI: 10.1021/acs.jctc.0c01306
   
   for ONIOM refer to:
   * C. Plett, A. Katbashev, S. Ehlert, S. Grimme, M. Bursch,
     Phys. Chem. Chem. Phys., 2023, 25, 17860-17868. DOI: 10.1039/D3CP02178E
   
   for DIPRO refer to:
   * J. Kohn, N. Gildemeister, S. Grimme, D. Fazzi, A. Hansen,
     J. Chem. Phys., 2023, just accepted.
   
   for PTB refer to:
   * S. Grimme, M. Mueller, A. Hansen, J. Chem. Phys., 2023, 158, 124111.
     DOI: 10.1063/5.0137838
   
   with help from (in alphabetical order)
   P. Atkinson, C. Bannwarth, F. Bohle, G. Brandenburg, E. Caldeweyher
   M. Checinski, S. Dohm, S. Ehlert, S. Ehrlich, I. Gerasimov, C. Hölzer
   A. Katbashev, J. Kohn, J. Koopman, C. Lavigne, S. Lehtola, F. März, M. Müller,
   F. Musil, H. Neugebauer, J. Pisarek, C. Plett, P. Pracht, F. Pultar,
   J. Seibert, P. Shushkov, S. Spicher, M. Stahn, M. Steiner, T. Strunk,
   J. Stückrath, T. Rose, and J. Unsleber
   
 * started run on 2025/01/10 at 14:26:20.034     
   ID    Z sym.   atoms
    1    8 O      1, 4
    2    6 C      2, 6
    3    1 H      3, 5, 8
    4    7 N      7

           -------------------------------------------------
          |                Calculation Setup                |
           -------------------------------------------------

          program call               : /home/adpal/xtb-dist/bin/xtb ./results/p_{0,52}_coordinatesxTB.xyz --ohess --uhf 1 --parallel 8
          coordinate file            : ./results/p_{0,52}_coordinatesxTB.xyz
          omp threads                :                     8


           -------------------------------------------------
          |                 G F N 2 - x T B                 |
           -------------------------------------------------

        Reference                      10.1021/acs.jctc.8b01176
      * Hamiltonian:
        H0-scaling (s, p, d)           1.850000    2.230000    2.230000
        zeta-weighting                 0.500000
      * Dispersion:
        s8                             2.700000
        a1                             0.520000
        a2                             5.000000
        s9                             5.000000
      * Repulsion:
        kExp                           1.500000    1.000000
        rExp                           1.000000
      * Coulomb:
        alpha                          2.000000
        third order                    shell-resolved
        anisotropic                    true
        a3                             3.000000
        a5                             4.000000
        cn-shift                       1.200000
        cn-exp                         4.000000
        max-rad                        5.000000

q/qsh data taken from xtbrestart
CAMM data taken from xtbrestart

          ...................................................
          :                      SETUP                      :
          :.................................................:
          :  # basis functions                  23          :
          :  # atomic orbitals                  23          :
          :  # shells                           13          :
          :  # electrons                        28          :
          :  max. iterations                   250          :
          :  Hamiltonian                  GFN2-xTB          :
          :  restarted?                       true          :
          :  GBSA solvation                  false          :
          :  PC potential                    false          :
          :  electronic temp.          300.0000000     K    :
          :  accuracy                    1.0000000          :
          :  -> integral cutoff          0.2500000E+02      :
          :  -> integral neglect         0.1000000E-07      :
          :  -> SCF convergence          0.1000000E-05 Eh   :
          :  -> wf. convergence          0.1000000E-03 e    :
          :  Broyden damping             0.4000000          :
          :  net charge                          0          :
          :  unpaired electrons                  1          :
          ...................................................

 iter      E             dE          RMSdq      gap      omega  full diag
   1    -16.9888812 -0.169889E+02  0.393E-06    3.26       0.0  T
   2    -16.9888812 -0.710543E-14  0.252E-06    3.26   14050.8  T
   3    -16.9888812 -0.142109E-13  0.148E-06    3.26   23960.1  T

   *** convergence criteria satisfied after 3 iterations ***

         #    Occupation            Energy/Eh            Energy/eV
      -------------------------------------------------------------
         1        2.0000           -0.7859260             -21.3861
       ...           ...                  ...                  ...
         8        2.0000           -0.5716648             -15.5558
         9        2.0000           -0.5471854             -14.8897
        10        2.0000           -0.5404802             -14.7072
        11        2.0000           -0.5244274             -14.2704
        12        2.0000           -0.4752188             -12.9314
        13        2.0000           -0.4611654             -12.5489
        14        2.0000           -0.4135375             -11.2529 (HOMO)
        15                         -0.2938328              -7.9956 (LUMO)
        16                         -0.2361524              -6.4260
        17                          0.0144308               0.3927
        18                          0.1053001               2.8654
        19                          0.1351052               3.6764
       ...                                ...                  ...
        23                          0.6444576              17.5366
      -------------------------------------------------------------
                  HL-Gap            0.1197047 Eh            3.2573 eV
             Fermi-level           -0.3536851 Eh           -9.6243 eV

 SCC (total)                   0 d,  0 h,  0 min,  0.006 sec
 SCC setup                      ...        0 min,  0.000 sec (  3.155%)
 Dispersion                     ...        0 min,  0.000 sec (  1.216%)
 classical contributions        ...        0 min,  0.000 sec (  0.325%)
 integral evaluation            ...        0 min,  0.000 sec (  5.972%)
 iterations                     ...        0 min,  0.004 sec ( 77.163%)
 molecular gradient             ...        0 min,  0.000 sec (  8.950%)
 printout                       ...        0 min,  0.000 sec (  2.869%)

         :::::::::::::::::::::::::::::::::::::::::::::::::::::
         ::                     SUMMARY                     ::
         :::::::::::::::::::::::::::::::::::::::::::::::::::::
         :: total energy             -16.824327445246 Eh    ::
         :: gradient norm              0.000043617240 Eh/a0 ::
         :: HOMO-LUMO gap              3.257331814857 eV    ::
         ::.................................................::
         :: SCC energy               -16.988881530244 Eh    ::
         :: -> isotropic ES            0.043421162322 Eh    ::
         :: -> anisotropic ES          0.003231302037 Eh    ::
         :: -> anisotropic XC          0.007643555620 Eh    ::
         :: -> dispersion             -0.003484977999 Eh    ::
         :: repulsion energy           0.164554084998 Eh    ::
         :: add. restraining           0.000000000000 Eh    ::
         :: total charge              -0.000000000000 e     ::
         :::::::::::::::::::::::::::::::::::::::::::::::::::::

      ----------------------------------------------------------- 
     |                   =====================                   |
     |                        A N C O P T                        |
     |                   =====================                   |
     |               Approximate Normal Coordinate               |
     |                Rational Function Optimizer                |
      ----------------------------------------------------------- 
      ----------------------------------------------------------- 
     |                   =====================                   |
     |                        A N C O P T                        |
     |                   =====================                   |
     |               Approximate Normal Coordinate               |
     |                Rational Function Optimizer                |
      ----------------------------------------------------------- 

          ...................................................
          :                      SETUP                      :
          :.................................................:
          :   optimization level            normal          :
          :   max. optcycles                   200          :
          :   ANC micro-cycles                  20          :
          :   degrees of freedom                18          :
          :.................................................:
          :   RF solver                   davidson          :
          :   write xtbopt.log                true          :
          :   linear?                        false          :
          :   energy convergence         0.5000000E-05 Eh   :
          :   grad. convergence          0.1000000E-02 Eh/α :
          :   maxmium RF displ.          1.0000000          :
          :   Hlow (freq-cutoff)         0.1000000E-01      :
          :   Hmax (freq-cutoff)         5.0000000          :
          :   S6 in model hess.         20.0000000          :
          ...................................................

generating ANC from exact Hessian ...
Using Lindh-Hessian (1995)
 Shifting diagonal of input Hessian by   7.204185670052505E-004
 Lowest  eigenvalues of input Hessian
    0.000000    0.000000    0.000000    0.000000    0.000000    0.000000
    0.010000    0.011558    0.026184    0.040323    0.104003    0.104815
    0.132916    0.155908    0.172887    0.356616    0.462375    0.588353
 Highest eigenvalues
    0.791974    1.141823    1.543732    1.874235    2.193909    2.479209
 

........................................................................
.............................. CYCLE    1 ..............................
........................................................................

 iter      E             dE          RMSdq      gap      omega  full diag
   1    -16.9888812 -0.169889E+02  0.323E-07    3.26       0.0  T
   2    -16.9888812  0.248690E-13  0.203E-07    3.26  100000.0  T
   3    -16.9888812 -0.106581E-13  0.123E-07    3.26  100000.0  T
     SCC iter.                  ...        0 min,  0.000 sec
     gradient                   ...        0 min,  0.000 sec
 * total energy  :   -16.8243274 Eh     change        0.1065814E-13 Eh
   gradient norm :     0.0000436 Eh/α   predicted     0.0000000E+00 (-100.00%)
   displ. norm   :     0.0005959 α      lambda       -0.5242085E-08
   maximum displ.:     0.0005079 α      in ANC's #2, #4, #3, ...

   *** GEOMETRY OPTIMIZATION CONVERGED AFTER 1 ITERATIONS ***

------------------------------------------------------------------------
 total energy gain   :         0.0000000 Eh        0.0000 kcal/mol
 total RMSD          :         0.0000000 a0        0.0000 Å
 total power (kW/mol):         0.0000000 (step)    0.0000 (real)
------------------------------------------------------------------------

 ANCopt (total)                0 d,  0 h,  0 min,  0.002 sec
 optimizer setup                ...        0 min,  0.000 sec (  4.365%)
 model hessian                  ...        0 min,  0.000 sec ( 12.540%)
 ANC generation                 ...        0 min,  0.000 sec (  4.176%)
 coordinate transformation      ...        0 min,  0.000 sec (  0.465%)
 single point calculation       ...        0 min,  0.001 sec ( 63.975%)
 optimization log               ...        0 min,  0.000 sec (  6.458%)
 hessian update                 ...        0 min,  0.000 sec (  0.089%)
 rational function              ...        0 min,  0.000 sec (  3.711%)

================
 final structure:
================
8
 xtb: 6.7.1 (edcfbbe)
O            1.99416774244448        0.61793703236009        1.17645950505740
C            1.44375474424984       -0.38182326405288        0.83594390539614
H            0.52174723428164       -0.78137037628082        1.28575606487146
O            1.82203367640951       -1.21145130547085       -0.14370409124015
H            4.12954447591007       -1.45873854015234       -2.26778098766649
C            2.94945024565227       -0.92425212001940       -0.85491842796868
N            3.28605147029121       -1.70939709906776       -1.76436428102628
H            3.44677041076097        0.00023567268394       -0.53006168742340
 
 Bond Distances (Angstroems)
 ---------------------------
O1-C2=1.1910         C2-O1=1.1910         C2-H3=1.1009         C2-O4=1.3383         H3-C2=1.1009         O4-C2=1.3383         
O4-C6=1.3636         H5-N7=1.0138         C6-O4=1.3636         C6-N7=1.2477         C6-H8=1.0989         N7-H5=1.0138         
N7-C6=1.2477         H8-C6=1.0989         
 C  H  Rav=1.0999 sigma=0.0010  Rmin=1.0989  Rmax=1.1009     2
 N  H  Rav=1.0138 sigma=0.0000  Rmin=1.0138  Rmax=1.0138     1
 N  C  Rav=1.2477 sigma=0.0000  Rmin=1.2477  Rmax=1.2477     1
 O  C  Rav=1.2976 sigma=0.0761  Rmin=1.1910  Rmax=1.3636     3
 
 selected bond angles (degree)
 --------------------
H3-C2-O1=125.09                O4-C2-O1=126.80                O4-C2-H3=108.11                C6-O4-C2=119.01                
N7-C6-O4=118.08                H8-C6-O4=113.40                H8-C6-N7=128.52                C6-N7-H5=115.52                
 
 selected dihedral angles (degree)
 ---------------------------------
C6-O4-C2-O1=  0.00            C6-O4-C2-H3=180.00            N7-C6-O4-C2=180.01            H8-C6-O4-C2=  0.00            
H5-N7-C6-O4=180.00            H5-N7-C6-H8=  0.00            
           -------------------------------------------------
          |                Final Singlepoint                |
           -------------------------------------------------

          ...................................................
          :                      SETUP                      :
          :.................................................:
          :  # basis functions                  23          :
          :  # atomic orbitals                  23          :
          :  # shells                           13          :
          :  # electrons                        28          :
          :  max. iterations                   250          :
          :  Hamiltonian                  GFN2-xTB          :
          :  restarted?                      false          :
          :  GBSA solvation                  false          :
          :  PC potential                    false          :
          :  electronic temp.          300.0000000     K    :
          :  accuracy                    1.0000000          :
          :  -> integral cutoff          0.2500000E+02      :
          :  -> integral neglect         0.1000000E-07      :
          :  -> SCF convergence          0.1000000E-05 Eh   :
          :  -> wf. convergence          0.1000000E-03 e    :
          :  Broyden damping             0.4000000          :
          :  net charge                          0          :
          :  unpaired electrons                  1          :
          ...................................................

 iter      E             dE          RMSdq      gap      omega  full diag
   1    -16.9888812 -0.169889E+02  0.458E-08    3.26       0.0  T
   2    -16.9888812  0.000000E+00  0.289E-08    3.26  100000.0  T
   3    -16.9888812  0.000000E+00  0.199E-08    3.26  100000.0  T

   *** convergence criteria satisfied after 3 iterations ***

         #    Occupation            Energy/Eh            Energy/eV
      -------------------------------------------------------------
         1        2.0000           -0.7859260             -21.3861
       ...           ...                  ...                  ...
         8        2.0000           -0.5716648             -15.5558
         9        2.0000           -0.5471854             -14.8897
        10        2.0000           -0.5404802             -14.7072
        11        2.0000           -0.5244274             -14.2704
        12        2.0000           -0.4752188             -12.9314
        13        2.0000           -0.4611654             -12.5489
        14        2.0000           -0.4135375             -11.2529 (HOMO)
        15                         -0.2938328              -7.9956 (LUMO)
        16                         -0.2361524              -6.4260
        17                          0.0144308               0.3927
        18                          0.1053001               2.8654
        19                          0.1351052               3.6764
       ...                                ...                  ...
        23                          0.6444576              17.5366
      -------------------------------------------------------------
                  HL-Gap            0.1197047 Eh            3.2573 eV
             Fermi-level           -0.3536851 Eh           -9.6243 eV

 SCC (total)                   0 d,  0 h,  0 min,  0.001 sec
 SCC setup                      ...        0 min,  0.000 sec (  6.510%)
 Dispersion                     ...        0 min,  0.000 sec (  1.466%)
 classical contributions        ...        0 min,  0.000 sec (  0.593%)
 integral evaluation            ...        0 min,  0.000 sec ( 15.218%)
 iterations                     ...        0 min,  0.000 sec ( 31.047%)
 molecular gradient             ...        0 min,  0.000 sec ( 36.597%)
 printout                       ...        0 min,  0.000 sec (  7.382%)

         :::::::::::::::::::::::::::::::::::::::::::::::::::::
         ::                     SUMMARY                     ::
         :::::::::::::::::::::::::::::::::::::::::::::::::::::
         :: total energy             -16.824327445246 Eh    ::
         :: gradient norm              0.000043613188 Eh/a0 ::
         :: HOMO-LUMO gap              3.257331562802 eV    ::
         ::.................................................::
         :: SCC energy               -16.988881530244 Eh    ::
         :: -> isotropic ES            0.043421146764 Eh    ::
         :: -> anisotropic ES          0.003231300464 Eh    ::
         :: -> anisotropic XC          0.007643556111 Eh    ::
         :: -> dispersion             -0.003484977970 Eh    ::
         :: repulsion energy           0.164554084998 Eh    ::
         :: add. restraining           0.000000000000 Eh    ::
         :: total charge              -0.000000000000 e     ::
         :::::::::::::::::::::::::::::::::::::::::::::::::::::

           ------------------------------------------------- 
          |                Numerical Hessian                |
           ------------------------------------------------- 
step length          :   0.00500
SCC accuracy         :   0.30000
Hessian scale factor :   1.00000
frozen atoms in %    :   0.00000    0
RMS gradient         :   0.00004
estimated CPU  time      0.01 min
estimated wall time      0.00 min

writing file <hessian>.

 projected vibrational frequencies (cm⁻¹)
eigval :       -0.00    -0.00     0.00     0.00     0.00     0.00
eigval :      102.04   234.77   285.03   479.13   761.06   800.19
eigval :      938.19   954.47   976.45  1125.90  1206.27  1333.28
eigval :     1346.85  1740.62  1792.21  2857.40  2862.45  3395.94
           -------------------------------------------------
          |                Property Printout                |
           -------------------------------------------------

    * Orbital Energies and Occupations

         #    Occupation            Energy/Eh            Energy/eV
      -------------------------------------------------------------
         1        2.0000           -0.7859261             -21.3861
         2        2.0000           -0.7576892             -20.6178
         3        2.0000           -0.7199497             -19.5908
         4        2.0000           -0.6622726             -18.0214
         5        2.0000           -0.6435585             -17.5121
         6        2.0000           -0.6255526             -17.0222
         7        2.0000           -0.6171940             -16.7947
         8        2.0000           -0.5716649             -15.5558
         9        2.0000           -0.5471854             -14.8897
        10        2.0000           -0.5404802             -14.7072
        11        2.0000           -0.5244274             -14.2704
        12        2.0000           -0.4752188             -12.9314
        13        2.0000           -0.4611654             -12.5489
        14        2.0000           -0.4135375             -11.2529 (HOMO)
        15                         -0.2938328              -7.9956 (LUMO)
        16                         -0.2361525              -6.4260
        17                          0.0144308               0.3927
        18                          0.1053001               2.8654
        19                          0.1351052               3.6764
        20                          0.1877675               5.1094
        21                          0.2646790               7.2023
        22                          0.5627407              15.3130
        23                          0.6444576              17.5366
      -------------------------------------------------------------
                  HL-Gap            0.1197047 Eh            3.2573 eV
             Fermi-level           -0.3536851 Eh           -9.6243 eV

     #   Z          covCN         q      C6AA      α(0)
     1   8 O        0.856    -0.337    20.469     6.066
     2   6 C        2.673     0.336    21.293     7.551
     3   1 H        0.923     0.052     2.291     2.367
     4   8 O        1.710    -0.195    17.260     5.609
     5   1 H        0.860     0.176     1.236     1.742
     6   6 C        2.727     0.223    23.303     7.903
     7   7 N        1.774    -0.291    28.356     7.885
     8   1 H        0.923     0.036     2.498     2.472

 Mol. C6AA /au·bohr⁶  :        759.763434
 Mol. C8AA /au·bohr⁸  :      16641.845628
 Mol. α(0) /au        :         41.594356


Wiberg/Mayer (AO) data.
largest (>0.10) Wiberg bond orders for each atom

 ---------------------------------------------------------------------------
     #   Z sym  total        # sym  WBO       # sym  WBO       # sym  WBO
 ---------------------------------------------------------------------------
     1   8 O    2.105 --     2 C    1.843     4 O    0.165
     2   6 C    3.912 --     1 O    1.843     4 O    1.114     3 H    0.917
     3   1 H    0.997 --     2 C    0.917
     4   8 O    2.430 --     2 C    1.114     6 C    1.035     1 O    0.165
     5   1 H    0.969 --     7 N    0.941
     6   6 C    3.916 --     7 N    1.916     4 O    1.035     8 H    0.931
     7   7 N    3.040 --     6 C    1.916     5 H    0.941
     8   1 H    0.999 --     6 C    0.931
 ---------------------------------------------------------------------------

Topologies differ in total number of bonds
Writing topology from bond orders to xtbtopo.mol

molecular dipole:
                 x           y           z       tot (Debye)
 q only:        0.071      -0.201      -0.220
   full:        0.164       0.049      -0.098       0.502
molecular quadrupole (traceless):
                xx          xy          yy          xz          yz          zz
 q only:        4.483      -1.207      -3.964      -4.772      -2.987      -0.519
  q+dip:        8.184       1.083      -6.751      -4.722      -6.122      -1.433
   full:        8.222       0.190      -7.213      -4.235      -6.929      -1.009

           -------------------------------------------------
          |                Geometry Summary                 |
           -------------------------------------------------

      molecular mass/u    :       73.0508071
   center of mass at/Å    :        2.2999253      -0.7034061      -0.1360963
  moments of inertia/u·Å² :        0.2261404E+02   0.1560904E+03   0.1787044E+03
rotational constants/cm⁻¹ :        0.7454499E+00   0.1079992E+00   0.9433248E-01

 * 6 selected distances

     #   Z          #   Z                                           value/Å
     1   8 O        2   6 C                                       1.1909770
     2   6 C        3   1 H                                       1.1009391
     2   6 C        4   8 O                                       1.3383154
     4   8 O        6   6 C                                       1.3635900 (max)
     6   6 C        7   7 N                                       1.2477360
     6   6 C        8   1 H                                       1.0988800 (min)

 * 3 distinct bonds (by element types)

   Z      Z             #   av. dist./Å        max./Å        min./Å
   1 H    6 C           2     1.0999095     1.1009391     1.0988800
   6 C    7 N           1     1.2477360     1.2477360     1.2477360
   6 C    8 O           3     1.2976275     1.3635900     1.1909770

           -------------------------------------------------
          |               Frequency Printout                |
           -------------------------------------------------
 projected vibrational frequencies (cm⁻¹)
eigval :       -0.00    -0.00     0.00     0.00     0.00     0.00
eigval :      102.04   234.77   285.03   479.13   761.06   800.19
eigval :      938.19   954.47   976.45  1125.90  1206.27  1333.28
eigval :     1346.85  1740.62  1792.21  2857.40  2862.45  3395.94
 reduced masses (amu)
   1: 13.52   2: 13.88   3: 13.95   4: 13.71   5: 13.73   6: 11.13   7: 10.11   8: 13.45
   9:  9.26  10: 12.59  11: 13.14  12:  4.74  13:  5.67  14:  8.76  15:  3.93  16: 13.38
  17:  6.98  18:  2.97  19:  2.98  20: 12.42  21: 13.43  22:  1.75  23:  1.78  24:  1.89
 IR intensities (km·mol⁻¹)
   1:  0.01   2:  0.02   3:  0.08   4:  0.05   5:  0.00   6:  0.22   7: 32.23   8: 19.33
   9: 49.55  10:  9.09  11: 26.31  12: 18.01  13:  5.62  14: 94.61  15: 18.44  16:497.40
  17:113.60  18:  5.58  19: 16.40  20:156.66  21:516.14  22: 18.68  23:104.09  24:  0.33
 Raman intensities (Ä⁴*amu⁻¹)
   1:  0.00   2:  0.00   3:  0.00   4:  0.00   5:  0.00   6:  0.00   7:  0.00   8:  0.00
   9:  0.00  10:  0.00  11:  0.00  12:  0.00  13:  0.00  14:  0.00  15:  0.00  16:  0.00
  17:  0.00  18:  0.00  19:  0.00  20:  0.00  21:  0.00  22:  0.00  23:  0.00  24:  0.00
 output can be read by thermo (or use thermo option).
 writing <g98.out> molden fake output.
 recommended (thermochemical) frequency scaling factor: 1.0
           -------------------------------------------------
          |             Thermodynamic Functions             |
           -------------------------------------------------

Molecule has the following symmetry elements: (sigma) 
It seems to be the Cs point group
cs  symmetry found (for desy threshold:  0.10E+00) used in thermo

          ...................................................
          :                      SETUP                      :
          :.................................................:
          :  # frequencies                          18      :
          :  # imaginary freq.                       0      :
          :  linear?                             false      :
          :  only rotor calc.                    false      :
          :  symmetry                               cs      :
          :  rotational number                       1      :
          :  scaling factor                  1.0000000      :
          :  rotor cutoff                   50.0000000 cm⁻¹ :
          :  imag. cutoff                  -20.0000000 cm⁻¹ :
          :.................................................:

    mode    ω/cm⁻¹     T·S(HO)/kcal·mol⁻¹    T·S(FR)/kcal·mol⁻¹   T·S(vib)
   ------------------------------------------------------------------------
       1    102.04    -1.01820 ( 94.55%)    -0.84483 (  5.45%)    -1.00874
       2    234.77    -0.54925 ( 99.79%)    -0.59821 (  0.21%)    -0.54935
       3    285.03    -0.44820 ( 99.91%)    -0.54077 (  0.09%)    -0.44829
   ------------------------------------------------------------------------

   temp. (K)  partition function   enthalpy   heat capacity  entropy
                                   cal/mol     cal/K/mol   cal/K/mol   J/K/mol
 298.15  VIB   6.15                 1430.126     10.107      8.376
         ROT  0.607E+05              888.752      2.981     24.867
         INT  0.373E+06             2318.879     13.088     33.243
         TR   0.604E+27             1481.254      4.968     38.764
         TOT                        3800.1324    18.0559    72.0075   301.2794

       T/K    H(0)-H(T)+PV         H(T)/Eh          T*S/Eh         G(T)/Eh
   ------------------------------------------------------------------------
    298.15    0.605590E-02    0.588918E-01    0.342131E-01    0.246787E-01
   ------------------------------------------------------------------------

         :::::::::::::::::::::::::::::::::::::::::::::::::::::
         ::                  THERMODYNAMIC                  ::
         :::::::::::::::::::::::::::::::::::::::::::::::::::::
         :: total free energy         -16.799648769558 Eh   ::
         ::.................................................::
         :: total energy              -16.824327445246 Eh   ::
         :: zero point energy           0.052835870820 Eh   ::
         :: G(RRHO) w/o ZPVE           -0.028157195132 Eh   ::
         :: G(RRHO) contrib.            0.024678675688 Eh   ::
         :::::::::::::::::::::::::::::::::::::::::::::::::::::

optimized geometry written to: xtbopt.xyz


           -------------------------------------------------
          | TOTAL ENERGY              -16.824327445246 Eh   |
          | TOTAL ENTHALPY            -16.765435677910 Eh   |
          | TOTAL FREE ENERGY         -16.799648769558 Eh   |
          | GRADIENT NORM               0.000043609737 Eh/α |
          | HOMO-LUMO GAP               3.257330908588 eV   |
           -------------------------------------------------

------------------------------------------------------------------------
 * finished run on 2025/01/10 at 14:26:20.083     
------------------------------------------------------------------------
 total:
 * wall-time:     0 d,  0 h,  0 min,  0.048 sec
 *  cpu-time:     0 d,  0 h,  0 min,  0.364 sec
 * ratio c/w:     7.645 speedup
 SCF:
 * wall-time:     0 d,  0 h,  0 min,  0.006 sec
 *  cpu-time:     0 d,  0 h,  0 min,  0.043 sec
 * ratio c/w:     7.587 speedup
 ANC optimizer:
 * wall-time:     0 d,  0 h,  0 min,  0.004 sec
 *  cpu-time:     0 d,  0 h,  0 min,  0.035 sec
 * ratio c/w:     7.984 speedup
 analytical hessian:
 * wall-time:     0 d,  0 h,  0 min,  0.027 sec
 *  cpu-time:     0 d,  0 h,  0 min,  0.212 sec
 * ratio c/w:     7.993 speedup

normal termination of xtb
