      -----------------------------------------------------------      
     |                   =====================                   |     
     |                           x T B                           |     
     |                   =====================                   |     
     |                         S. Grimme                         |     
     |          Mulliken Center for Theoretical Chemistry        |     
     |                    University of Bonn                     |     
      -----------------------------------------------------------      

   * xtb version 6.7.1 (edcfbbe) compiled by 'albert@albert-system' on 2024-07-22

   xtb is free software: you can redistribute it and/or modify it under
   the terms of the GNU Lesser General Public License as published by
   the Free Software Foundation, either version 3 of the License, or
   (at your option) any later version.
   
   xtb is distributed in the hope that it will be useful,
   but WITHOUT ANY WARRANTY; without even the implied warranty of
   MERCHANTABILITY or FITNESS FOR A PARTICULAR PURPOSE.  See the
   GNU Lesser General Public License for more details.
   
   Cite this work as:
   * C. Bannwarth, E. Caldeweyher, S. Ehlert, A. Hansen, P. Pracht,
     J. Seibert, S. Spicher, S. Grimme, WIREs Comput. Mol. Sci., 2020, 11,
     e01493. DOI: 10.1002/wcms.1493
   
   for GFN2-xTB:
   * C. Bannwarth, S. Ehlert and S. Grimme., J. Chem. Theory Comput., 2019,
     15, 1652-1671. DOI: 10.1021/acs.jctc.8b01176
   for GFN1-xTB:
   * S. Grimme, C. Bannwarth, P. Shushkov, J. Chem. Theory Comput., 2017,
     13, 1989-2009. DOI: 10.1021/acs.jctc.7b00118
   for GFN0-xTB:
   * P. Pracht, E. Caldeweyher, S. Ehlert, S. Grimme, ChemRxiv, 2019, preprint.
     DOI: 10.26434/chemrxiv.8326202.v1
   for GFN-FF:
   * S. Spicher and S. Grimme, Angew. Chem. Int. Ed., 2020, 59, 15665-15673.
     DOI: 10.1002/anie.202004239
   
   for ALPB and GBSA implicit solvation:
   * S. Ehlert, M. Stahn, S. Spicher, S. Grimme, J. Chem. Theory Comput.,
     2021, 17, 4250-4261. DOI: 10.1021/acs.jctc.1c00471
   
   for ddCOSMO and CPCM-X implicit solvation:
   * M. Stahn, S. Ehlert, S. Grimme, J. Phys. Chem. A,
     2023, XX, XXXX-XXXX. DOI: 10.1021/acs.jpca.3c04382
   
   for DFT-D4:
   * E. Caldeweyher, C. Bannwarth and S. Grimme, J. Chem. Phys., 2017,
     147, 034112. DOI: 10.1063/1.4993215
   * E. Caldeweyher, S. Ehlert, A. Hansen, H. Neugebauer, S. Spicher,
     C. Bannwarth and S. Grimme, J. Chem. Phys., 2019, 150, 154122.
     DOI: 10.1063/1.5090222
   * E. Caldeweyher, J.-M. Mewes, S. Ehlert and S. Grimme, Phys. Chem. Chem. Phys.
     2020, 22, 8499-8512. DOI: 10.1039/D0CP00502A
   
   for sTDA-xTB:
   * S. Grimme and C. Bannwarth, J. Chem. Phys., 2016, 145, 054103.
     DOI: 10.1063/1.4959605
   
   in the mass-spec context:
   * V. Asgeirsson, C. Bauer and S. Grimme, Chem. Sci., 2017, 8, 4879.
     DOI: 10.1039/c7sc00601b
   * J. Koopman and S. Grimme, ACS Omega 2019, 4, 12, 15120-15133.
     DOI: 10.1021/acsomega.9b02011
   
   for metadynamics refer to:
   * S. Grimme, J. Chem. Theory Comput., 2019, 155, 2847-2862
     DOI: 10.1021/acs.jctc.9b00143
   
   for SPH calculations refer to:
   * S. Spicher and S. Grimme, J. Chem. Theory Comput., 2021, 17, 1701-1714
     DOI: 10.1021/acs.jctc.0c01306
   
   for ONIOM refer to:
   * C. Plett, A. Katbashev, S. Ehlert, S. Grimme, M. Bursch,
     Phys. Chem. Chem. Phys., 2023, 25, 17860-17868. DOI: 10.1039/D3CP02178E
   
   for DIPRO refer to:
   * J. Kohn, N. Gildemeister, S. Grimme, D. Fazzi, A. Hansen,
     J. Chem. Phys., 2023, just accepted.
   
   for PTB refer to:
   * S. Grimme, M. Mueller, A. Hansen, J. Chem. Phys., 2023, 158, 124111.
     DOI: 10.1063/5.0137838
   
   with help from (in alphabetical order)
   P. Atkinson, C. Bannwarth, F. Bohle, G. Brandenburg, E. Caldeweyher
   M. Checinski, S. Dohm, S. Ehlert, S. Ehrlich, I. Gerasimov, C. Hölzer
   A. Katbashev, J. Kohn, J. Koopman, C. Lavigne, S. Lehtola, F. März, M. Müller,
   F. Musil, H. Neugebauer, J. Pisarek, C. Plett, P. Pracht, F. Pultar,
   J. Seibert, P. Shushkov, S. Spicher, M. Stahn, M. Steiner, T. Strunk,
   J. Stückrath, T. Rose, and J. Unsleber
   
 * started run on 2025/01/10 at 14:26:00.205     
   ID    Z sym.   atoms
    1    8 O      1, 4, 10
    2    1 H      2, 3, 5, 6, 9, 11, 12, 15
    3    6 C      7, 13
    4    7 N      8, 14

           -------------------------------------------------
          |                Calculation Setup                |
           -------------------------------------------------

          program call               : /home/adpal/xtb-dist/bin/xtb ./results/p_{0,46}_coordinatesxTB.xyz --ohess --uhf 1 --parallel 8
          coordinate file            : ./results/p_{0,46}_coordinatesxTB.xyz
          omp threads                :                     8


           -------------------------------------------------
          |                 G F N 2 - x T B                 |
           -------------------------------------------------

        Reference                      10.1021/acs.jctc.8b01176
      * Hamiltonian:
        H0-scaling (s, p, d)           1.850000    2.230000    2.230000
        zeta-weighting                 0.500000
      * Dispersion:
        s8                             2.700000
        a1                             0.520000
        a2                             5.000000
        s9                             5.000000
      * Repulsion:
        kExp                           1.500000    1.000000
        rExp                           1.000000
      * Coulomb:
        alpha                          2.000000
        third order                    shell-resolved
        anisotropic                    true
        a3                             3.000000
        a5                             4.000000
        cn-shift                       1.200000
        cn-exp                         4.000000
        max-rad                        5.000000

q/qsh data taken from xtbrestart
CAMM data taken from xtbrestart

          ...................................................
          :                      SETUP                      :
          :.................................................:
          :  # basis functions                  36          :
          :  # atomic orbitals                  36          :
          :  # shells                           22          :
          :  # electrons                        44          :
          :  max. iterations                   250          :
          :  Hamiltonian                  GFN2-xTB          :
          :  restarted?                       true          :
          :  GBSA solvation                  false          :
          :  PC potential                    false          :
          :  electronic temp.          300.0000000     K    :
          :  accuracy                    1.0000000          :
          :  -> integral cutoff          0.2500000E+02      :
          :  -> integral neglect         0.1000000E-07      :
          :  -> SCF convergence          0.1000000E-05 Eh   :
          :  -> wf. convergence          0.1000000E-03 e    :
          :  Broyden damping             0.4000000          :
          :  net charge                          0          :
          :  unpaired electrons                  1          :
          ...................................................

 iter      E             dE          RMSdq      gap      omega  full diag
   1    -26.5919592 -0.265920E+02  0.152E-06   11.29       0.0  T
   2    -26.5919592  0.000000E+00  0.942E-07   11.29   27408.1  T
   3    -26.5919592 -0.213163E-13  0.306E-07   11.29   84340.3  T

   *** convergence criteria satisfied after 3 iterations ***

         #    Occupation            Energy/Eh            Energy/eV
      -------------------------------------------------------------
         1        2.0000           -0.7257950             -19.7499
       ...           ...                  ...                  ...
        16        2.0000           -0.4918009             -13.3826
        17        2.0000           -0.4638970             -12.6233
        18        2.0000           -0.4582853             -12.4706
        19        2.0000           -0.4518089             -12.2943
        20        2.0000           -0.4329170             -11.7803
        21        2.0000           -0.4043735             -11.0036
        22        2.0000           -0.3978551             -10.8262 (HOMO)
        23                          0.0169339               0.4608 (LUMO)
        24                          0.0387428               1.0542
        25                          0.0529864               1.4418
        26                          0.0707486               1.9252
        27                          0.0874691               2.3802
       ...                                ...                  ...
        36                          0.2734034               7.4397
      -------------------------------------------------------------
                  HL-Gap            0.4147889 Eh           11.2870 eV
             Fermi-level           -0.1904606 Eh           -5.1827 eV

 SCC (total)                   0 d,  0 h,  0 min,  0.007 sec
 SCC setup                      ...        0 min,  0.000 sec (  3.185%)
 Dispersion                     ...        0 min,  0.000 sec (  3.030%)
 classical contributions        ...        0 min,  0.000 sec (  1.314%)
 integral evaluation            ...        0 min,  0.001 sec ( 10.018%)
 iterations                     ...        0 min,  0.004 sec ( 58.488%)
 molecular gradient             ...        0 min,  0.001 sec ( 19.008%)
 printout                       ...        0 min,  0.000 sec (  4.663%)

         :::::::::::::::::::::::::::::::::::::::::::::::::::::
         ::                     SUMMARY                     ::
         :::::::::::::::::::::::::::::::::::::::::::::::::::::
         :: total energy             -26.397405018789 Eh    ::
         :: gradient norm              0.000037496340 Eh/a0 ::
         :: HOMO-LUMO gap             11.286981066461 eV    ::
         ::.................................................::
         :: SCC energy               -26.591933167829 Eh    ::
         :: -> isotropic ES            0.096737668957 Eh    ::
         :: -> anisotropic ES         -0.005856730181 Eh    ::
         :: -> anisotropic XC          0.002984142515 Eh    ::
         :: -> dispersion             -0.008201218365 Eh    ::
         :: repulsion energy           0.194528149041 Eh    ::
         :: add. restraining           0.000000000000 Eh    ::
         :: total charge              -0.000000000000 e     ::
         :::::::::::::::::::::::::::::::::::::::::::::::::::::

      ----------------------------------------------------------- 
     |                   =====================                   |
     |                        A N C O P T                        |
     |                   =====================                   |
     |               Approximate Normal Coordinate               |
     |                Rational Function Optimizer                |
      ----------------------------------------------------------- 
      ----------------------------------------------------------- 
     |                   =====================                   |
     |                        A N C O P T                        |
     |                   =====================                   |
     |               Approximate Normal Coordinate               |
     |                Rational Function Optimizer                |
      ----------------------------------------------------------- 

          ...................................................
          :                      SETUP                      :
          :.................................................:
          :   optimization level            normal          :
          :   max. optcycles                   200          :
          :   ANC micro-cycles                  20          :
          :   degrees of freedom                39          :
          :.................................................:
          :   RF solver                   davidson          :
          :   write xtbopt.log                true          :
          :   linear?                        false          :
          :   energy convergence         0.5000000E-05 Eh   :
          :   grad. convergence          0.1000000E-02 Eh/α :
          :   maxmium RF displ.          1.0000000          :
          :   Hlow (freq-cutoff)         0.1000000E-01      :
          :   Hmax (freq-cutoff)         5.0000000          :
          :   S6 in model hess.         20.0000000          :
          ...................................................

generating ANC from exact Hessian ...
Using Lindh-Hessian (1995)
 Shifting diagonal of input Hessian by   7.769857297422548E-003
 Lowest  eigenvalues of input Hessian
    0.000000    0.000000    0.000000    0.000000    0.000000    0.000000
    0.010000    0.013417    0.017968    0.024287    0.029188    0.031634
    0.035508    0.043553    0.048089    0.054996    0.084441    0.097132
 Highest eigenvalues
    1.406525    1.441030    1.502479    1.652435    1.681921    1.709413
 

........................................................................
.............................. CYCLE    1 ..............................
........................................................................

 iter      E             dE          RMSdq      gap      omega  full diag
   1    -26.5919592 -0.265920E+02  0.881E-08   11.29       0.0  T
   2    -26.5919592 -0.213163E-13  0.532E-08   11.29  100000.0  T
   3    -26.5919592  0.106581E-13  0.261E-08   11.29  100000.0  T
     SCC iter.                  ...        0 min,  0.002 sec
     gradient                   ...        0 min,  0.001 sec
 * total energy  :   -26.3974050 Eh     change        0.3197442E-13 Eh
   gradient norm :     0.0000375 Eh/α   predicted     0.0000000E+00 (-100.00%)
   displ. norm   :     0.0005882 α      lambda       -0.4350630E-08
   maximum displ.:     0.0005041 α      in ANC's #2, #4, #6, ...

   *** GEOMETRY OPTIMIZATION CONVERGED AFTER 1 ITERATIONS ***

------------------------------------------------------------------------
 total energy gain   :         0.0000000 Eh        0.0000 kcal/mol
 total RMSD          :         0.0000000 a0        0.0000 Å
 total power (kW/mol):         0.0000000 (step)    0.0000 (real)
------------------------------------------------------------------------

 ANCopt (total)                0 d,  0 h,  0 min,  0.008 sec
 optimizer setup                ...        0 min,  0.000 sec (  1.471%)
 model hessian                  ...        0 min,  0.003 sec ( 39.446%)
 ANC generation                 ...        0 min,  0.000 sec (  4.675%)
 coordinate transformation      ...        0 min,  0.000 sec (  0.138%)
 single point calculation       ...        0 min,  0.004 sec ( 47.147%)
 optimization log               ...        0 min,  0.000 sec (  3.379%)
 hessian update                 ...        0 min,  0.000 sec (  0.024%)
 rational function              ...        0 min,  0.000 sec (  2.384%)

================
 final structure:
================
15
 xtb: 6.7.1 (edcfbbe)
O            2.86247049256573       -0.36359023332703        1.04836577556161
H            0.65868921551699        0.48348999479880       -0.12865555216212
H            2.33092112689983        0.24989095464467        1.57298875084399
O            4.63140314341337        2.56885405490513       -0.90086480654328
H            4.47609540667025        0.82564099336501       -2.84359268205476
H            3.99044834448381        2.98264736341473       -1.49281980589000
C            4.36348035826251        1.20580189354690       -0.85222323647720
N            4.85741865921323        0.45878246497916       -1.97752072584998
H            4.85030172429649        0.82006156309978        0.05452911723925
O            2.97310103717651        1.05015200712582       -0.77504207543692
H            0.92263780624751       -0.40857888404695       -1.48191872806273
H            5.86695179268360        0.50590785404870       -2.01944900116408
C            2.53889670642575       -0.21920454656465       -0.28193369831585
N            1.13353058434207       -0.33538775584796       -0.49567373399308
H            3.07085360180228       -1.01667772414191       -0.81600959769462
 
 Bond Distances (Angstroems)
 ---------------------------
O1-H3=0.9665         O1-C13=1.3767        H2-N14=1.0153        H3-O1=0.9665         O4-H6=0.9656         O4-C7=1.3900         
H5-N8=1.0149         H6-O4=0.9656         C7-O4=1.3900         C7-N8=1.4382         C7-H9=1.0991         C7-O10=1.4012        
N8-H5=1.0149         N8-C7=1.4382         N8-H12=1.0115        H9-C7=1.0991         O10-C7=1.4012        O10-C13=1.4293       
H11-N14=1.0112       H12-N8=1.0115        C13-O1=1.3767        C13-O10=1.4293       C13-N14=1.4263       C13-H15=1.0974       
N14-H2=1.0153        N14-H11=1.0112       N14-C13=1.4263       H15-C13=1.0974       
 C  H  Rav=1.0982 sigma=0.0009  Rmin=1.0974  Rmax=1.0991     2
 N  H  Rav=1.0132 sigma=0.0019  Rmin=1.0112  Rmax=1.0153     4
 N  C  Rav=1.4322 sigma=0.0059  Rmin=1.4263  Rmax=1.4382     2
 O  H  Rav=0.9661 sigma=0.0004  Rmin=0.9656  Rmax=0.9665     2
 O  C  Rav=1.3993 sigma=0.0194  Rmin=1.3767  Rmax=1.4293     4
 
 selected bond angles (degree)
 --------------------
C13-O1-H3=109.19               C7-O4-H6=108.28                N8-C7-O4=114.57                H9-C7-O4=106.72                
H9-C7-N8=108.13                O10-C7-O4=107.59               O10-C7-N8=109.04               O10-C7-H9=110.80               
C7-N8-H5=110.54                H12-N8-H5=108.83               H12-N8-C7=110.55               C13-O10-C7=114.78              
 
 selected dihedral angles (degree)
 ---------------------------------
N8-C7-O4-H6= 79.35            H9-C7-O4-H6=198.99            O10-C7-O4-H6=317.94           H5-N8-C7-O4=302.52            
H5-N8-C7-H9=183.67            H5-N8-C7-O10= 63.13           H12-N8-C7-O4= 63.09           H12-N8-C7-H9=304.24           
H12-N8-C7-O10=183.70          C13-O10-C7-O4=199.69          C13-O10-C7-N8= 74.89          C13-O10-C7-H9=316.00          
           -------------------------------------------------
          |                Final Singlepoint                |
           -------------------------------------------------

          ...................................................
          :                      SETUP                      :
          :.................................................:
          :  # basis functions                  36          :
          :  # atomic orbitals                  36          :
          :  # shells                           22          :
          :  # electrons                        44          :
          :  max. iterations                   250          :
          :  Hamiltonian                  GFN2-xTB          :
          :  restarted?                      false          :
          :  GBSA solvation                  false          :
          :  PC potential                    false          :
          :  electronic temp.          300.0000000     K    :
          :  accuracy                    1.0000000          :
          :  -> integral cutoff          0.2500000E+02      :
          :  -> integral neglect         0.1000000E-07      :
          :  -> SCF convergence          0.1000000E-05 Eh   :
          :  -> wf. convergence          0.1000000E-03 e    :
          :  Broyden damping             0.4000000          :
          :  net charge                          0          :
          :  unpaired electrons                  1          :
          ...................................................

 iter      E             dE          RMSdq      gap      omega  full diag
   1    -26.5919592 -0.265920E+02  0.795E-09   11.29       0.0  T
   2    -26.5919592 -0.213163E-13  0.439E-09   11.29  100000.0  T
   3    -26.5919592  0.000000E+00  0.211E-09   11.29  100000.0  T

   *** convergence criteria satisfied after 3 iterations ***

         #    Occupation            Energy/Eh            Energy/eV
      -------------------------------------------------------------
         1        2.0000           -0.7257950             -19.7499
       ...           ...                  ...                  ...
        16        2.0000           -0.4918009             -13.3826
        17        2.0000           -0.4638970             -12.6233
        18        2.0000           -0.4582853             -12.4706
        19        2.0000           -0.4518089             -12.2943
        20        2.0000           -0.4329170             -11.7803
        21        2.0000           -0.4043735             -11.0036
        22        2.0000           -0.3978551             -10.8262 (HOMO)
        23                          0.0169339               0.4608 (LUMO)
        24                          0.0387428               1.0542
        25                          0.0529864               1.4418
        26                          0.0707486               1.9252
        27                          0.0874691               2.3802
       ...                                ...                  ...
        36                          0.2734034               7.4397
      -------------------------------------------------------------
                  HL-Gap            0.4147889 Eh           11.2870 eV
             Fermi-level           -0.1904606 Eh           -5.1827 eV

 SCC (total)                   0 d,  0 h,  0 min,  0.003 sec
 SCC setup                      ...        0 min,  0.000 sec (  3.493%)
 Dispersion                     ...        0 min,  0.000 sec (  2.454%)
 classical contributions        ...        0 min,  0.000 sec (  1.128%)
 integral evaluation            ...        0 min,  0.000 sec ( 12.080%)
 iterations                     ...        0 min,  0.002 sec ( 46.133%)
 molecular gradient             ...        0 min,  0.001 sec ( 29.447%)
 printout                       ...        0 min,  0.000 sec (  4.558%)

         :::::::::::::::::::::::::::::::::::::::::::::::::::::
         ::                     SUMMARY                     ::
         :::::::::::::::::::::::::::::::::::::::::::::::::::::
         :: total energy             -26.397405018789 Eh    ::
         :: gradient norm              0.000037501506 Eh/a0 ::
         :: HOMO-LUMO gap             11.286981063613 eV    ::
         ::.................................................::
         :: SCC energy               -26.591933167829 Eh    ::
         :: -> isotropic ES            0.096737667592 Eh    ::
         :: -> anisotropic ES         -0.005856730445 Eh    ::
         :: -> anisotropic XC          0.002984142426 Eh    ::
         :: -> dispersion             -0.008201218356 Eh    ::
         :: repulsion energy           0.194528149041 Eh    ::
         :: add. restraining           0.000000000000 Eh    ::
         :: total charge              -0.000000000000 e     ::
         :::::::::::::::::::::::::::::::::::::::::::::::::::::

           ------------------------------------------------- 
          |                Numerical Hessian                |
           ------------------------------------------------- 
step length          :   0.00500
SCC accuracy         :   0.30000
Hessian scale factor :   1.00000
frozen atoms in %    :   0.00000    0
RMS gradient         :   0.00004
estimated CPU  time      0.04 min
estimated wall time      0.00 min

writing file <hessian>.

 projected vibrational frequencies (cm⁻¹)
eigval :       -0.00    -0.00     0.00     0.00     0.00     0.00
eigval :       63.05    79.66   171.66   242.46   260.57   295.53
eigval :      317.89   359.88   457.14   464.15   509.84   550.48
eigval :      618.68   889.59   897.57   955.96   961.93   991.15
eigval :     1062.09  1095.09  1100.54  1108.34  1155.07  1232.40
eigval :     1263.13  1288.55  1321.57  1329.50  1354.96  1537.90
eigval :     1545.93  2919.92  2935.76  3396.02  3398.53  3456.53
eigval :     3457.47  3506.96  3521.99
           -------------------------------------------------
          |                Property Printout                |
           -------------------------------------------------

    * Orbital Energies and Occupations

         #    Occupation            Energy/Eh            Energy/eV
      -------------------------------------------------------------
         1        2.0000           -0.7257950             -19.7499
       ...           ...                  ...                  ...
        10        2.0000           -0.5727294             -15.5848
        11        2.0000           -0.5633291             -15.3290
        12        2.0000           -0.5459859             -14.8570
        13        2.0000           -0.5380416             -14.6409
        14        2.0000           -0.5233368             -14.2407
        15        2.0000           -0.5027890             -13.6816
        16        2.0000           -0.4918009             -13.3826
        17        2.0000           -0.4638970             -12.6233
        18        2.0000           -0.4582853             -12.4706
        19        2.0000           -0.4518089             -12.2943
        20        2.0000           -0.4329170             -11.7803
        21        2.0000           -0.4043735             -11.0036
        22        2.0000           -0.3978551             -10.8262 (HOMO)
        23                          0.0169339               0.4608 (LUMO)
        24                          0.0387428               1.0542
        25                          0.0529864               1.4418
        26                          0.0707486               1.9252
        27                          0.0874691               2.3802
        28                          0.1206108               3.2820
        29                          0.1380878               3.7576
        30                          0.1521236               4.1395
        31                          0.1633537               4.4451
        32                          0.1777097               4.8357
        33                          0.2179498               5.9307
       ...                                ...                  ...
        36                          0.2734034               7.4397
      -------------------------------------------------------------
                  HL-Gap            0.4147889 Eh           11.2870 eV
             Fermi-level           -0.1904606 Eh           -5.1827 eV

     #   Z          covCN         q      C6AA      α(0)
     1   8 O        1.658    -0.434    21.512     6.261
     2   1 H        0.860     0.166     1.298     1.785
     3   1 H        0.805     0.314     0.680     1.295
     4   8 O        1.657    -0.450    21.836     6.308
     5   1 H        0.860     0.159     1.341     1.814
     6   1 H        0.805     0.310     0.691     1.305
     7   6 C        3.554     0.323    16.548     5.941
     8   7 N        2.629    -0.380    29.832     8.112
     9   1 H        0.923     0.039     2.456     2.451
    10   8 O        1.700    -0.388    20.599     6.128
    11   1 H        0.860     0.166     1.295     1.783
    12   1 H        0.860     0.165     1.303     1.788
    13   6 C        3.553     0.315    16.659     5.962
    14   7 N        2.630    -0.355    29.160     8.020
    15   1 H        0.924     0.048     2.344     2.394

 Mol. C6AA /au·bohr⁶  :       1771.369892
 Mol. C8AA /au·bohr⁸  :      35756.929020
 Mol. α(0) /au        :         61.347376


Wiberg/Mayer (AO) data.
largest (>0.10) Wiberg bond orders for each atom

 ---------------------------------------------------------------------------
     #   Z sym  total        # sym  WBO       # sym  WBO       # sym  WBO
 ---------------------------------------------------------------------------
     1   8 O    2.002 --    13 C    1.017     3 H    0.880
     2   1 H    0.972 --    14 N    0.953
     3   1 H    0.901 --     1 O    0.880
     4   8 O    1.981 --     7 C    0.991     6 H    0.884
     5   1 H    0.975 --     8 N    0.958
     6   1 H    0.904 --     4 O    0.884
     7   6 C    3.931 --     8 N    1.011     4 O    0.991    10 O    0.958
                             9 H    0.948
     8   7 N    3.022 --     7 C    1.011     5 H    0.958    12 H    0.958
     9   1 H    0.998 --     7 C    0.948
    10   8 O    2.055 --     7 C    0.958    13 C    0.910
    11   1 H    0.972 --    14 N    0.957
    12   1 H    0.973 --     8 N    0.958
    13   6 C    3.930 --    14 N    1.034     1 O    1.017    15 H    0.948
                            10 O    0.910
    14   7 N    3.033 --    13 C    1.034    11 H    0.957     2 H    0.953
    15   1 H    0.998 --    13 C    0.948
 ---------------------------------------------------------------------------

Topologies differ in total number of bonds
Writing topology from bond orders to xtbtopo.mol

molecular dipole:
                 x           y           z       tot (Debye)
 q only:       -0.499       0.142      -0.462
   full:       -0.493       0.726      -0.837       3.082
molecular quadrupole (traceless):
                xx          xy          yy          xz          yz          zz
 q only:       -5.258      -1.855      -1.261      -6.074      -0.927       6.519
  q+dip:       -6.059       0.761      -3.084      -9.899      -2.504       9.143
   full:       -5.814       0.897      -3.191      -9.833      -2.557       9.005

           -------------------------------------------------
          |                Geometry Summary                 |
           -------------------------------------------------

      molecular mass/u    :      108.0966190
   center of mass at/Å    :        3.3364253       0.6488500      -0.6060946
  moments of inertia/u·Å² :        0.1061066E+03   0.3225285E+03   0.3327161E+03
rotational constants/cm⁻¹ :        0.1588745E+00   0.5226711E-01   0.5066671E-01

 * 14 selected distances

     #   Z          #   Z                                           value/Å
     1   8 O        3   1 H                                       0.9665057
     4   8 O        6   1 H                                       0.9656391 (min)
     4   8 O        7   6 C                                       1.3899857
     5   1 H        8   7 N                                       1.0149253
     7   6 C        8   7 N                                       1.4381613 (max)
     7   6 C        9   1 H                                       1.0990863
     7   6 C       10   8 O                                       1.4011919
     8   7 N       12   1 H                                       1.0115019
     1   8 O       13   6 C                                       1.3766787
    10   8 O       13   6 C                                       1.4293200
     2   1 H       14   7 N                                       1.0152525
    11   1 H       14   7 N                                       1.0111934
    13   6 C       14   7 N                                       1.4262670
    13   6 C       15   1 H                                       1.0973509

 * 5 distinct bonds (by element types)

   Z      Z             #   av. dist./Å        max./Å        min./Å
   1 H    6 C           2     1.0982186     1.0990863     1.0973509
   1 H    7 N           4     1.0132183     1.0152525     1.0111934
   6 C    7 N           2     1.4322142     1.4381613     1.4262670
   1 H    8 O           2     0.9660724     0.9665057     0.9656391
   6 C    8 O           4     1.3992941     1.4293200     1.3766787

           -------------------------------------------------
          |               Frequency Printout                |
           -------------------------------------------------
 projected vibrational frequencies (cm⁻¹)
eigval :       -0.00    -0.00     0.00     0.00     0.00     0.00
eigval :       63.05    79.66   171.66   242.46   260.57   295.53
eigval :      317.89   359.88   457.14   464.15   509.84   550.48
eigval :      618.68   889.59   897.57   955.96   961.93   991.15
eigval :     1062.09  1095.09  1100.54  1108.34  1155.07  1232.40
eigval :     1263.13  1288.55  1321.57  1329.50  1354.96  1537.90
eigval :     1545.93  2919.92  2935.76  3396.02  3398.53  3456.53
eigval :     3457.47  3506.96  3521.99
 reduced masses (amu)
   1: 13.05   2: 13.00   3: 12.53   4: 13.59   5: 13.64   6: 13.16   7: 12.46   8: 13.26
   9: 12.65  10:  1.73  11:  1.61  12:  4.37  13:  5.09  14:  7.66  15: 11.22  16: 12.30
  17: 11.49  18: 10.76  19: 11.03  20:  7.59  21:  7.57  22:  9.40  23: 12.22  24: 10.23
  25: 10.73  26:  4.03  27:  5.15  28: 10.75  29:  9.48  30:  4.45  31:  4.74  32:  4.20
  33:  3.54  34:  2.92  35:  3.85  36:  2.25  37:  2.23  38:  1.72  39:  1.73  40:  1.65
  41:  1.62  42:  1.97  43:  1.95  44:  1.86  45:  1.87
 IR intensities (km·mol⁻¹)
   1:  1.74   2:  0.55   3:  1.98   4:  0.13   5:  0.31   6:  0.08   7:  1.43   8:  1.16
   9:  0.78  10: 52.58  11: 47.17  12: 63.17  13:227.14  14: 20.30  15: 16.88  16: 46.55
  17: 32.10  18: 27.83  19: 26.20  20: 73.62  21: 95.68  22:352.02  23:231.80  24:265.97
  25:232.60  26: 71.79  27: 46.03  28:118.07  29:113.47  30: 24.03  31: 66.68  32: 37.44
  33: 93.68  34: 26.73  35:141.72  36: 51.78  37: 48.92  38: 36.51  39: 30.52  40:  3.01
  41:  4.93  42:  0.67  43:  0.25  44: 14.60  45: 15.81
 Raman intensities (Ä⁴*amu⁻¹)
   1:  0.00   2:  0.00   3:  0.00   4:  0.00   5:  0.00   6:  0.00   7:  0.00   8:  0.00
   9:  0.00  10:  0.00  11:  0.00  12:  0.00  13:  0.00  14:  0.00  15:  0.00  16:  0.00
  17:  0.00  18:  0.00  19:  0.00  20:  0.00  21:  0.00  22:  0.00  23:  0.00  24:  0.00
  25:  0.00  26:  0.00  27:  0.00  28:  0.00  29:  0.00  30:  0.00  31:  0.00  32:  0.00
  33:  0.00  34:  0.00  35:  0.00  36:  0.00  37:  0.00  38:  0.00  39:  0.00  40:  0.00
  41:  0.00  42:  0.00  43:  0.00  44:  0.00  45:  0.00
 output can be read by thermo (or use thermo option).
 writing <g98.out> molden fake output.
 recommended (thermochemical) frequency scaling factor: 1.0
           -------------------------------------------------
          |             Thermodynamic Functions             |
           -------------------------------------------------

Refinement of some symmetry elements was terminated before convergence was reached.
Some symmetry elements may remain unidentified.
Molecule has no symmetry elements
It seems to be the C1 point group
c1  symmetry found (for desy threshold:  0.10E+00) used in thermo

          ...................................................
          :                      SETUP                      :
          :.................................................:
          :  # frequencies                          39      :
          :  # imaginary freq.                       0      :
          :  linear?                             false      :
          :  only rotor calc.                    false      :
          :  symmetry                               c1      :
          :  rotational number                       1      :
          :  scaling factor                  1.0000000      :
          :  rotor cutoff                   50.0000000 cm⁻¹ :
          :  imag. cutoff                  -20.0000000 cm⁻¹ :
          :.................................................:

    mode    ω/cm⁻¹     T·S(HO)/kcal·mol⁻¹    T·S(FR)/kcal·mol⁻¹   T·S(vib)
   ------------------------------------------------------------------------
       1     63.05    -1.29976 ( 71.66%)    -0.98754 ( 28.34%)    -1.21127
       2     79.66    -1.16257 ( 86.56%)    -0.91834 ( 13.44%)    -1.12975
       3    171.66    -0.72069 ( 99.29%)    -0.69102 (  0.71%)    -0.72048
       4    242.46    -0.53212 ( 99.82%)    -0.58876 (  0.18%)    -0.53222
       5    260.57    -0.49431 ( 99.86%)    -0.56742 (  0.14%)    -0.49441
       6    295.53    -0.42995 ( 99.92%)    -0.53013 (  0.08%)    -0.43003
   ------------------------------------------------------------------------

   temp. (K)  partition function   enthalpy   heat capacity  entropy
                                   cal/mol     cal/K/mol   cal/K/mol   J/K/mol
 298.15  VIB   150.                 3660.666     24.497     21.823
         ROT  0.258E+06              888.752      2.981     27.742
         INT  0.385E+08             4549.418     27.478     49.565
         TR   0.109E+28             1481.254      4.968     39.932
         TOT                        6030.6718    32.4460    89.4969   374.4552

       T/K    H(0)-H(T)+PV         H(T)/Eh          T*S/Eh         G(T)/Eh
   ------------------------------------------------------------------------
    298.15    0.961049E-02    0.128247E+00    0.425229E-01    0.857242E-01
   ------------------------------------------------------------------------

         :::::::::::::::::::::::::::::::::::::::::::::::::::::
         ::                  THERMODYNAMIC                  ::
         :::::::::::::::::::::::::::::::::::::::::::::::::::::
         :: total free energy         -26.311680809559 Eh   ::
         ::.................................................::
         :: total energy              -26.397405018789 Eh   ::
         :: zero point energy           0.118636602126 Eh   ::
         :: G(RRHO) w/o ZPVE           -0.032912392897 Eh   ::
         :: G(RRHO) contrib.            0.085724209230 Eh   ::
         :::::::::::::::::::::::::::::::::::::::::::::::::::::

optimized geometry written to: xtbopt.xyz


           -------------------------------------------------
          | TOTAL ENERGY              -26.397405018789 Eh   |
          | TOTAL ENTHALPY            -26.269157929357 Eh   |
          | TOTAL FREE ENERGY         -26.311680809559 Eh   |
          | GRADIENT NORM               0.000037503014 Eh/α |
          | HOMO-LUMO GAP              11.286981220909 eV   |
           -------------------------------------------------

------------------------------------------------------------------------
 * finished run on 2025/01/10 at 14:26:00.350     
------------------------------------------------------------------------
 total:
 * wall-time:     0 d,  0 h,  0 min,  0.144 sec
 *  cpu-time:     0 d,  0 h,  0 min,  1.093 sec
 * ratio c/w:     7.569 speedup
 SCF:
 * wall-time:     0 d,  0 h,  0 min,  0.007 sec
 *  cpu-time:     0 d,  0 h,  0 min,  0.044 sec
 * ratio c/w:     6.014 speedup
 ANC optimizer:
 * wall-time:     0 d,  0 h,  0 min,  0.012 sec
 *  cpu-time:     0 d,  0 h,  0 min,  0.088 sec
 * ratio c/w:     7.046 speedup
 analytical hessian:
 * wall-time:     0 d,  0 h,  0 min,  0.109 sec
 *  cpu-time:     0 d,  0 h,  0 min,  0.871 sec
 * ratio c/w:     7.989 speedup

normal termination of xtb
