      -----------------------------------------------------------      
     |                   =====================                   |     
     |                           x T B                           |     
     |                   =====================                   |     
     |                         S. Grimme                         |     
     |          Mulliken Center for Theoretical Chemistry        |     
     |                    University of Bonn                     |     
      -----------------------------------------------------------      

   * xtb version 6.7.1 (edcfbbe) compiled by 'albert@albert-system' on 2024-07-22

   xtb is free software: you can redistribute it and/or modify it under
   the terms of the GNU Lesser General Public License as published by
   the Free Software Foundation, either version 3 of the License, or
   (at your option) any later version.
   
   xtb is distributed in the hope that it will be useful,
   but WITHOUT ANY WARRANTY; without even the implied warranty of
   MERCHANTABILITY or FITNESS FOR A PARTICULAR PURPOSE.  See the
   GNU Lesser General Public License for more details.
   
   Cite this work as:
   * C. Bannwarth, E. Caldeweyher, S. Ehlert, A. Hansen, P. Pracht,
     J. Seibert, S. Spicher, S. Grimme, WIREs Comput. Mol. Sci., 2020, 11,
     e01493. DOI: 10.1002/wcms.1493
   
   for GFN2-xTB:
   * C. Bannwarth, S. Ehlert and S. Grimme., J. Chem. Theory Comput., 2019,
     15, 1652-1671. DOI: 10.1021/acs.jctc.8b01176
   for GFN1-xTB:
   * S. Grimme, C. Bannwarth, P. Shushkov, J. Chem. Theory Comput., 2017,
     13, 1989-2009. DOI: 10.1021/acs.jctc.7b00118
   for GFN0-xTB:
   * P. Pracht, E. Caldeweyher, S. Ehlert, S. Grimme, ChemRxiv, 2019, preprint.
     DOI: 10.26434/chemrxiv.8326202.v1
   for GFN-FF:
   * S. Spicher and S. Grimme, Angew. Chem. Int. Ed., 2020, 59, 15665-15673.
     DOI: 10.1002/anie.202004239
   
   for ALPB and GBSA implicit solvation:
   * S. Ehlert, M. Stahn, S. Spicher, S. Grimme, J. Chem. Theory Comput.,
     2021, 17, 4250-4261. DOI: 10.1021/acs.jctc.1c00471
   
   for ddCOSMO and CPCM-X implicit solvation:
   * M. Stahn, S. Ehlert, S. Grimme, J. Phys. Chem. A,
     2023, XX, XXXX-XXXX. DOI: 10.1021/acs.jpca.3c04382
   
   for DFT-D4:
   * E. Caldeweyher, C. Bannwarth and S. Grimme, J. Chem. Phys., 2017,
     147, 034112. DOI: 10.1063/1.4993215
   * E. Caldeweyher, S. Ehlert, A. Hansen, H. Neugebauer, S. Spicher,
     C. Bannwarth and S. Grimme, J. Chem. Phys., 2019, 150, 154122.
     DOI: 10.1063/1.5090222
   * E. Caldeweyher, J.-M. Mewes, S. Ehlert and S. Grimme, Phys. Chem. Chem. Phys.
     2020, 22, 8499-8512. DOI: 10.1039/D0CP00502A
   
   for sTDA-xTB:
   * S. Grimme and C. Bannwarth, J. Chem. Phys., 2016, 145, 054103.
     DOI: 10.1063/1.4959605
   
   in the mass-spec context:
   * V. Asgeirsson, C. Bauer and S. Grimme, Chem. Sci., 2017, 8, 4879.
     DOI: 10.1039/c7sc00601b
   * J. Koopman and S. Grimme, ACS Omega 2019, 4, 12, 15120-15133.
     DOI: 10.1021/acsomega.9b02011
   
   for metadynamics refer to:
   * S. Grimme, J. Chem. Theory Comput., 2019, 155, 2847-2862
     DOI: 10.1021/acs.jctc.9b00143
   
   for SPH calculations refer to:
   * S. Spicher and S. Grimme, J. Chem. Theory Comput., 2021, 17, 1701-1714
     DOI: 10.1021/acs.jctc.0c01306
   
   for ONIOM refer to:
   * C. Plett, A. Katbashev, S. Ehlert, S. Grimme, M. Bursch,
     Phys. Chem. Chem. Phys., 2023, 25, 17860-17868. DOI: 10.1039/D3CP02178E
   
   for DIPRO refer to:
   * J. Kohn, N. Gildemeister, S. Grimme, D. Fazzi, A. Hansen,
     J. Chem. Phys., 2023, just accepted.
   
   for PTB refer to:
   * S. Grimme, M. Mueller, A. Hansen, J. Chem. Phys., 2023, 158, 124111.
     DOI: 10.1063/5.0137838
   
   with help from (in alphabetical order)
   P. Atkinson, C. Bannwarth, F. Bohle, G. Brandenburg, E. Caldeweyher
   M. Checinski, S. Dohm, S. Ehlert, S. Ehrlich, I. Gerasimov, C. Hölzer
   A. Katbashev, J. Kohn, J. Koopman, C. Lavigne, S. Lehtola, F. März, M. Müller,
   F. Musil, H. Neugebauer, J. Pisarek, C. Plett, P. Pracht, F. Pultar,
   J. Seibert, P. Shushkov, S. Spicher, M. Stahn, M. Steiner, T. Strunk,
   J. Stückrath, T. Rose, and J. Unsleber
   
 * started run on 2025/01/10 at 14:27:02.495     
   ID    Z sym.   atoms
    1    8 O      1, 7, 10
    2    1 H      2, 3, 6, 9, 11, 14
    3    6 C      4, 8, 12
    4    7 N      5, 13

           -------------------------------------------------
          |                Calculation Setup                |
           -------------------------------------------------

          program call               : /home/adpal/xtb-dist/bin/xtb ./results/p_{0,67}_coordinatesxTB.xyz --ohess --uhf 1 --parallel 8
          coordinate file            : ./results/p_{0,67}_coordinatesxTB.xyz
          omp threads                :                     8


           -------------------------------------------------
          |                 G F N 2 - x T B                 |
           -------------------------------------------------

        Reference                      10.1021/acs.jctc.8b01176
      * Hamiltonian:
        H0-scaling (s, p, d)           1.850000    2.230000    2.230000
        zeta-weighting                 0.500000
      * Dispersion:
        s8                             2.700000
        a1                             0.520000
        a2                             5.000000
        s9                             5.000000
      * Repulsion:
        kExp                           1.500000    1.000000
        rExp                           1.000000
      * Coulomb:
        alpha                          2.000000
        third order                    shell-resolved
        anisotropic                    true
        a3                             3.000000
        a5                             4.000000
        cn-shift                       1.200000
        cn-exp                         4.000000
        max-rad                        5.000000

q/qsh data taken from xtbrestart
CAMM data taken from xtbrestart

          ...................................................
          :                      SETUP                      :
          :.................................................:
          :  # basis functions                  38          :
          :  # atomic orbitals                  38          :
          :  # shells                           22          :
          :  # electrons                        46          :
          :  max. iterations                   250          :
          :  Hamiltonian                  GFN2-xTB          :
          :  restarted?                       true          :
          :  GBSA solvation                  false          :
          :  PC potential                    false          :
          :  electronic temp.          300.0000000     K    :
          :  accuracy                    1.0000000          :
          :  -> integral cutoff          0.2500000E+02      :
          :  -> integral neglect         0.1000000E-07      :
          :  -> SCF convergence          0.1000000E-05 Eh   :
          :  -> wf. convergence          0.1000000E-03 e    :
          :  Broyden damping             0.4000000          :
          :  net charge                          0          :
          :  unpaired electrons                  1          :
          ...................................................

 iter      E             dE          RMSdq      gap      omega  full diag
   1    -27.7500729 -0.277501E+02  0.283E-06    4.32       0.0  T
   2    -27.7500729 -0.177636E-13  0.165E-06    4.32   16195.0  T
   3    -27.7500729  0.426326E-13  0.535E-07    4.32   49914.9  T

   *** convergence criteria satisfied after 3 iterations ***

         #    Occupation            Energy/Eh            Energy/eV
      -------------------------------------------------------------
         1        2.0000           -0.7720812             -21.0094
       ...           ...                  ...                  ...
        17        2.0000           -0.5296118             -14.4115
        18        2.0000           -0.5095306             -13.8650
        19        2.0000           -0.4917706             -13.3818
        20        2.0000           -0.4555882             -12.3972
        21        2.0000           -0.4489745             -12.2172
        22        2.0000           -0.4252591             -11.5719
        23        2.0000           -0.4057624             -11.0414 (HOMO)
        24                         -0.2469519              -6.7199 (LUMO)
        25                         -0.2389883              -6.5032
        26                         -0.0294573              -0.8016
        27                         -0.0017417              -0.0474
        28                          0.0506372               1.3779
       ...                                ...                  ...
        38                          0.6331392              17.2286
      -------------------------------------------------------------
                  HL-Gap            0.1588105 Eh            4.3215 eV
             Fermi-level           -0.3263572 Eh           -8.8806 eV

 SCC (total)                   0 d,  0 h,  0 min,  0.010 sec
 SCC setup                      ...        0 min,  0.000 sec (  2.670%)
 Dispersion                     ...        0 min,  0.001 sec (  7.245%)
 classical contributions        ...        0 min,  0.000 sec (  0.567%)
 integral evaluation            ...        0 min,  0.001 sec (  5.520%)
 iterations                     ...        0 min,  0.007 sec ( 71.180%)
 molecular gradient             ...        0 min,  0.001 sec ( 10.473%)
 printout                       ...        0 min,  0.000 sec (  2.093%)

         :::::::::::::::::::::::::::::::::::::::::::::::::::::
         ::                     SUMMARY                     ::
         :::::::::::::::::::::::::::::::::::::::::::::::::::::
         :: total energy             -27.498130486970 Eh    ::
         :: gradient norm              0.000042265413 Eh/a0 ::
         :: HOMO-LUMO gap              4.321454108649 eV    ::
         ::.................................................::
         :: SCC energy               -27.750072624979 Eh    ::
         :: -> isotropic ES            0.081903947652 Eh    ::
         :: -> anisotropic ES          0.003459213863 Eh    ::
         :: -> anisotropic XC          0.006093401310 Eh    ::
         :: -> dispersion             -0.008184402890 Eh    ::
         :: repulsion energy           0.251942138008 Eh    ::
         :: add. restraining           0.000000000000 Eh    ::
         :: total charge               0.000000000000 e     ::
         :::::::::::::::::::::::::::::::::::::::::::::::::::::

      ----------------------------------------------------------- 
     |                   =====================                   |
     |                        A N C O P T                        |
     |                   =====================                   |
     |               Approximate Normal Coordinate               |
     |                Rational Function Optimizer                |
      ----------------------------------------------------------- 
      ----------------------------------------------------------- 
     |                   =====================                   |
     |                        A N C O P T                        |
     |                   =====================                   |
     |               Approximate Normal Coordinate               |
     |                Rational Function Optimizer                |
      ----------------------------------------------------------- 

          ...................................................
          :                      SETUP                      :
          :.................................................:
          :   optimization level            normal          :
          :   max. optcycles                   200          :
          :   ANC micro-cycles                  20          :
          :   degrees of freedom                36          :
          :.................................................:
          :   RF solver                   davidson          :
          :   write xtbopt.log                true          :
          :   linear?                        false          :
          :   energy convergence         0.5000000E-05 Eh   :
          :   grad. convergence          0.1000000E-02 Eh/α :
          :   maxmium RF displ.          1.0000000          :
          :   Hlow (freq-cutoff)         0.1000000E-01      :
          :   Hmax (freq-cutoff)         5.0000000          :
          :   S6 in model hess.         20.0000000          :
          ...................................................

generating ANC from exact Hessian ...
Using Lindh-Hessian (1995)
 Shifting diagonal of input Hessian by   6.561172527644031E-003
 Lowest  eigenvalues of input Hessian
    0.000000    0.000000    0.000000    0.000000    0.000000    0.000000
    0.010000    0.012106    0.014141    0.018292    0.021972    0.036845
    0.039371    0.043456    0.057567    0.074950    0.097283    0.098689
 Highest eigenvalues
    1.585582    1.744118    1.805535    1.866634    2.231154    2.455594
 

........................................................................
.............................. CYCLE    1 ..............................
........................................................................

 iter      E             dE          RMSdq      gap      omega  full diag
   1    -27.7500729 -0.277501E+02  0.246E-07    4.32       0.0  T
   2    -27.7500729  0.319744E-13  0.143E-07    4.32  100000.0  T
   3    -27.7500729 -0.355271E-13  0.706E-08    4.32  100000.0  T
     SCC iter.                  ...        0 min,  0.002 sec
     gradient                   ...        0 min,  0.001 sec
 * total energy  :   -27.4981305 Eh     change       -0.3552714E-13 Eh
   gradient norm :     0.0000423 Eh/α   predicted     0.0000000E+00 (-100.00%)
   displ. norm   :     0.0005698 α      lambda       -0.8226618E-08
   maximum displ.:     0.0002396 α      in ANC's #3, #4, #10, ...

   *** GEOMETRY OPTIMIZATION CONVERGED AFTER 1 ITERATIONS ***

------------------------------------------------------------------------
 total energy gain   :        -0.0000000 Eh       -0.0000 kcal/mol
 total RMSD          :         0.0000001 a0        0.0000 Å
 total power (kW/mol):        -0.0000000 (step)   -0.0000 (real)
------------------------------------------------------------------------

 ANCopt (total)                0 d,  0 h,  0 min,  0.007 sec
 optimizer setup                ...        0 min,  0.000 sec (  1.571%)
 model hessian                  ...        0 min,  0.002 sec ( 25.138%)
 ANC generation                 ...        0 min,  0.000 sec (  5.392%)
 coordinate transformation      ...        0 min,  0.000 sec (  0.187%)
 single point calculation       ...        0 min,  0.004 sec ( 59.903%)
 optimization log               ...        0 min,  0.000 sec (  3.407%)
 hessian update                 ...        0 min,  0.000 sec (  0.027%)
 rational function              ...        0 min,  0.000 sec (  2.740%)

================
 final structure:
================
14
 xtb: 6.7.1 (edcfbbe)
O           -0.77568201182690        0.39882314388236       -0.28478222985782
H            1.23342634930248       -0.56373557033280        0.83402702760195
H            3.56892905186039       -1.15746694423470       -0.23852558540652
C            0.35813268577297        0.75611918539686       -0.43063266352457
N            1.42481041918958        0.18220195631955        0.17684537155525
H            0.65876990439960        1.58796602062149       -1.09232464172331
O            3.55177635878873       -0.29522510784969       -0.67631258288241
C            2.78674063969018        0.59200056396906        0.05059000058011
H            2.82944815992175        1.54343772622132       -0.50371066907051
O            3.28472960818667        0.73398558365938        1.35937931168037
H            5.71373815839265        2.15559265298339        2.74014482083253
C            4.36339180486917        1.51723161165103        1.54119775781320
N            4.92156346487789        1.52963578108165        2.65829313641835
H            4.64977540657450        2.09350339663096        0.64356094598335
 
 Bond Distances (Angstroems)
 ---------------------------
O1-C4=1.1977         H2-N5=1.0124         H3-O7=0.9672         C4-O1=1.1977         C4-N5=1.3551         C4-H6=1.1046         
N5-H2=1.0124         N5-C4=1.3551         N5-C8=1.4278         H6-C4=1.1046         O7-H3=0.9672         O7-C8=1.3787         
C8-N5=1.4278         C8-O7=1.3787         C8-H9=1.1020         C8-O10=1.4075        H9-C8=1.1020         O10-C8=1.4075        
O10-C12=1.3454       H11-N13=1.0129       C12-O10=1.3454       C12-N13=1.2488       C12-H14=1.1045       N13-H11=1.0129       
N13-C12=1.2488       H14-C12=1.1045       
 C  H  Rav=1.1037 sigma=0.0012  Rmin=1.1020  Rmax=1.1046     3
 N  H  Rav=1.0127 sigma=0.0003  Rmin=1.0124  Rmax=1.0129     2
 N  C  Rav=1.3439 sigma=0.0735  Rmin=1.2488  Rmax=1.4278     3
 O  H  Rav=0.9672 sigma=0.0000  Rmin=0.9672  Rmax=0.9672     1
 O  C  Rav=1.3323 sigma=0.0808  Rmin=1.1977  Rmax=1.4075     4
 
 selected bond angles (degree)
 --------------------
N5-C4-O1=124.35                H6-C4-O1=123.73                H6-C4-N5=111.92                C4-N5-H2=117.02                
C8-N5-H2=116.69                C8-N5-C4=126.13                C8-O7-H3=110.18                O7-C8-N5=113.03                
H9-C8-N5=109.22                H9-C8-O7=105.60                O10-C8-N5=106.51               O10-C8-O7=111.03               
O10-C8-H9=111.53               C12-O10-C8=117.91              
 
 selected dihedral angles (degree)
 ---------------------------------
H2-N5-C4-O1=356.50            H2-N5-C4-H6=177.35            C8-N5-C4-O1=181.27            C8-N5-C4-H6=  2.12            
O7-C8-N5-H2= 75.73            O7-C8-N5-C4=250.97            H9-C8-N5-H2=192.96            H9-C8-N5-C4=  8.21            
O10-C8-N5-H2=313.54           O10-C8-N5-C4=128.79           N5-C8-O7-H3=298.63            H9-C8-O7-H3=179.28            
O10-C8-O7-H3= 58.25           C12-O10-C8-N5=201.77          C12-O10-C8-O7= 78.32          C12-O10-C8-H9=320.85          
           -------------------------------------------------
          |                Final Singlepoint                |
           -------------------------------------------------

          ...................................................
          :                      SETUP                      :
          :.................................................:
          :  # basis functions                  38          :
          :  # atomic orbitals                  38          :
          :  # shells                           22          :
          :  # electrons                        46          :
          :  max. iterations                   250          :
          :  Hamiltonian                  GFN2-xTB          :
          :  restarted?                      false          :
          :  GBSA solvation                  false          :
          :  PC potential                    false          :
          :  electronic temp.          300.0000000     K    :
          :  accuracy                    1.0000000          :
          :  -> integral cutoff          0.2500000E+02      :
          :  -> integral neglect         0.1000000E-07      :
          :  -> SCF convergence          0.1000000E-05 Eh   :
          :  -> wf. convergence          0.1000000E-03 e    :
          :  Broyden damping             0.4000000          :
          :  net charge                          0          :
          :  unpaired electrons                  1          :
          ...................................................

 iter      E             dE          RMSdq      gap      omega  full diag
   1    -27.7500729 -0.277501E+02  0.180E-08    4.32       0.0  T
   2    -27.7500729 -0.710543E-14  0.108E-08    4.32  100000.0  T
   3    -27.7500729  0.355271E-14  0.688E-09    4.32  100000.0  T

   *** convergence criteria satisfied after 3 iterations ***

         #    Occupation            Energy/Eh            Energy/eV
      -------------------------------------------------------------
         1        2.0000           -0.7720812             -21.0094
       ...           ...                  ...                  ...
        17        2.0000           -0.5296118             -14.4115
        18        2.0000           -0.5095306             -13.8650
        19        2.0000           -0.4917706             -13.3818
        20        2.0000           -0.4555882             -12.3972
        21        2.0000           -0.4489745             -12.2172
        22        2.0000           -0.4252591             -11.5719
        23        2.0000           -0.4057624             -11.0414 (HOMO)
        24                         -0.2469519              -6.7199 (LUMO)
        25                         -0.2389883              -6.5032
        26                         -0.0294573              -0.8016
        27                         -0.0017417              -0.0474
        28                          0.0506372               1.3779
       ...                                ...                  ...
        38                          0.6331392              17.2286
      -------------------------------------------------------------
                  HL-Gap            0.1588105 Eh            4.3215 eV
             Fermi-level           -0.3263572 Eh           -8.8806 eV

 SCC (total)                   0 d,  0 h,  0 min,  0.005 sec
 SCC setup                      ...        0 min,  0.000 sec (  2.650%)
 Dispersion                     ...        0 min,  0.000 sec (  1.846%)
 classical contributions        ...        0 min,  0.000 sec (  0.901%)
 integral evaluation            ...        0 min,  0.001 sec ( 13.513%)
 iterations                     ...        0 min,  0.002 sec ( 35.679%)
 molecular gradient             ...        0 min,  0.002 sec ( 39.073%)
 printout                       ...        0 min,  0.000 sec (  5.858%)

         :::::::::::::::::::::::::::::::::::::::::::::::::::::
         ::                     SUMMARY                     ::
         :::::::::::::::::::::::::::::::::::::::::::::::::::::
         :: total energy             -27.498130486970 Eh    ::
         :: gradient norm              0.000042262998 Eh/a0 ::
         :: HOMO-LUMO gap              4.321454067816 eV    ::
         ::.................................................::
         :: SCC energy               -27.750072624979 Eh    ::
         :: -> isotropic ES            0.081903943596 Eh    ::
         :: -> anisotropic ES          0.003459213449 Eh    ::
         :: -> anisotropic XC          0.006093401690 Eh    ::
         :: -> dispersion             -0.008184402877 Eh    ::
         :: repulsion energy           0.251942138008 Eh    ::
         :: add. restraining           0.000000000000 Eh    ::
         :: total charge               0.000000000000 e     ::
         :::::::::::::::::::::::::::::::::::::::::::::::::::::

           ------------------------------------------------- 
          |                Numerical Hessian                |
           ------------------------------------------------- 
step length          :   0.00500
SCC accuracy         :   0.30000
Hessian scale factor :   1.00000
frozen atoms in %    :   0.00000    0
RMS gradient         :   0.00004
estimated CPU  time      0.03 min
estimated wall time      0.00 min

writing file <hessian>.

 projected vibrational frequencies (cm⁻¹)
eigval :       -0.00    -0.00     0.00     0.00     0.00     0.00
eigval :       29.36    58.09    99.61   128.89   177.91   292.89
eigval :      351.13   384.63   445.93   509.01   592.72   610.53
eigval :      663.64   775.96   946.42   966.13   978.43  1042.26
eigval :     1067.27  1091.33  1195.30  1219.40  1227.40  1263.06
eigval :     1319.68  1343.95  1367.98  1411.00  1741.97  1796.21
eigval :     2774.90  2794.26  2887.42  3406.53  3412.92  3499.95
           -------------------------------------------------
          |                Property Printout                |
           -------------------------------------------------

    * Orbital Energies and Occupations

         #    Occupation            Energy/Eh            Energy/eV
      -------------------------------------------------------------
         1        2.0000           -0.7720812             -21.0094
       ...           ...                  ...                  ...
        11        2.0000           -0.6028539             -16.4045
        12        2.0000           -0.5703326             -15.5195
        13        2.0000           -0.5606299             -15.2555
        14        2.0000           -0.5511277             -14.9969
        15        2.0000           -0.5461501             -14.8615
        16        2.0000           -0.5317946             -14.4709
        17        2.0000           -0.5296118             -14.4115
        18        2.0000           -0.5095306             -13.8650
        19        2.0000           -0.4917706             -13.3818
        20        2.0000           -0.4555882             -12.3972
        21        2.0000           -0.4489745             -12.2172
        22        2.0000           -0.4252591             -11.5719
        23        2.0000           -0.4057624             -11.0414 (HOMO)
        24                         -0.2469519              -6.7199 (LUMO)
        25                         -0.2389882              -6.5032
        26                         -0.0294573              -0.8016
        27                         -0.0017417              -0.0474
        28                          0.0506372               1.3779
        29                          0.0690908               1.8801
        30                          0.1075868               2.9276
        31                          0.1133565               3.0846
        32                          0.1334244               3.6307
        33                          0.1773158               4.8250
        34                          0.2042479               5.5579
       ...                                ...                  ...
        38                          0.6331392              17.2286
      -------------------------------------------------------------
                  HL-Gap            0.1588105 Eh            4.3215 eV
             Fermi-level           -0.3263572 Eh           -8.8806 eV

     #   Z          covCN         q      C6AA      α(0)
     1   8 O        0.858    -0.366    21.004     6.145
     2   1 H        0.860     0.213     1.041     1.599
     3   1 H        0.805     0.325     0.651     1.268
     4   6 C        2.693     0.261    22.599     7.780
     5   7 N        2.683    -0.208    25.517     7.502
     6   1 H        0.923     0.019     2.748     2.593
     7   8 O        1.657    -0.429    21.419     6.248
     8   6 C        3.567     0.312    16.594     5.931
     9   1 H        0.923     0.055     2.264     2.353
    10   8 O        1.709    -0.266    18.412     5.793
    11   1 H        0.860     0.169     1.280     1.772
    12   6 C        2.715     0.230    23.164     7.878
    13   7 N        1.774    -0.314    28.953     7.968
    14   1 H        0.923    -0.002     3.085     2.747

 Mol. C6AA /au·bohr⁶  :       2054.148239
 Mol. C8AA /au·bohr⁸  :      44028.660196
 Mol. α(0) /au        :         67.576862


Wiberg/Mayer (AO) data.
largest (>0.10) Wiberg bond orders for each atom

 ---------------------------------------------------------------------------
     #   Z sym  total        # sym  WBO       # sym  WBO       # sym  WBO
 ---------------------------------------------------------------------------
     1   8 O    2.067 --     4 C    1.782     5 N    0.203
     2   1 H    0.955 --     5 N    0.919
     3   1 H    0.895 --     7 O    0.874
     4   6 C    3.946 --     1 O    1.782     5 N    1.223     6 H    0.919
     5   7 N    3.419 --     4 C    1.223     8 C    0.995     2 H    0.919
                             1 O    0.203
     6   1 H    1.000 --     4 C    0.919
     7   8 O    2.006 --     8 C    1.014     3 H    0.874
     8   6 C    3.933 --     7 O    1.014     5 N    0.995    10 O    0.943
                             9 H    0.937
     9   1 H    0.997 --     8 C    0.937
    10   8 O    2.278 --    12 C    1.083     8 C    0.943    13 N    0.129
    11   1 H    0.970 --    13 N    0.943
    12   6 C    3.925 --    13 N    1.886    10 O    1.083    14 H    0.927
    13   7 N    3.028 --    12 C    1.886    11 H    0.943    10 O    0.129
    14   1 H    1.000 --    12 C    0.927
 ---------------------------------------------------------------------------

Topologies differ in total number of bonds
Writing topology from bond orders to xtbtopo.mol

molecular dipole:
                 x           y           z       tot (Debye)
 q only:        1.056      -0.041      -0.127
   full:        1.328       0.180      -0.416       3.566
molecular quadrupole (traceless):
                xx          xy          yy          xz          yz          zz
 q only:        1.787       2.393       4.847      -1.913      -1.186      -6.634
  q+dip:        2.062       6.021       9.581      -5.818      -3.564     -11.643
   full:        2.266       5.503       9.670      -5.889      -2.227     -11.936

           -------------------------------------------------
          |                Geometry Summary                 |
           -------------------------------------------------

      molecular mass/u    :      118.0914734
   center of mass at/Å    :        2.4967426       0.6562356       0.5286624
  moments of inertia/u·Å² :        0.1033514E+03   0.5245097E+03   0.5954740E+03
rotational constants/cm⁻¹ :        0.1631099E+00   0.3213979E-01   0.2830960E-01

 * 10 selected distances

     #   Z          #   Z                                           value/Å
     1   8 O        4   6 C                                       1.1976931
     2   1 H        5   7 N                                       1.0123925
     4   6 C        5   7 N                                       1.3550691
     3   1 H        7   8 O                                       0.9671674 (min)
     5   7 N        8   6 C                                       1.4278409 (max)
     7   8 O        8   6 C                                       1.3787084
     8   6 C        9   1 H                                       1.1019556
     8   6 C       10   8 O                                       1.4075094
    10   8 O       12   6 C                                       1.3453790
    12   6 C       13   7 N                                       1.2488442

 * 5 distinct bonds (by element types)

   Z      Z             #   av. dist./Å        max./Å        min./Å
   1 H    6 C           1     1.1019556     1.1019556     1.1019556
   1 H    7 N           1     1.0123925     1.0123925     1.0123925
   6 C    7 N           3     1.3439181     1.4278409     1.2488442
   1 H    8 O           1     0.9671674     0.9671674     0.9671674
   6 C    8 O           4     1.3323225     1.4075094     1.1976931

           -------------------------------------------------
          |               Frequency Printout                |
           -------------------------------------------------
 projected vibrational frequencies (cm⁻¹)
eigval :       -0.00    -0.00     0.00     0.00     0.00     0.00
eigval :       29.36    58.09    99.61   128.89   177.91   292.89
eigval :      351.13   384.63   445.93   509.01   592.72   610.53
eigval :      663.64   775.96   946.42   966.13   978.43  1042.26
eigval :     1067.27  1091.33  1195.30  1219.40  1227.40  1263.06
eigval :     1319.68  1343.95  1367.98  1411.00  1741.97  1796.21
eigval :     2774.90  2794.26  2887.42  3406.53  3412.92  3499.95
 reduced masses (amu)
   1: 13.62   2: 13.78   3: 13.92   4: 13.46   5: 13.04   6: 13.26   7: 12.44   8: 11.97
   9: 10.42  10:  9.28  11: 12.56  12: 12.26  13:  5.07  14: 13.03  15: 11.69  16: 12.31
  17:  8.37  18:  7.48  19: 11.98  20:  4.30  21:  4.79  22:  4.43  23:  9.93  24: 11.96
  25: 10.00  26:  9.31  27:  5.94  28:  5.09  29:  7.20  30:  6.67  31:  3.59  32:  4.12
  33:  3.40  34:  7.22  35: 12.44  36: 13.27  37:  1.71  38:  1.69  39:  1.71  40:  1.89
  41:  1.83  42:  1.86
 IR intensities (km·mol⁻¹)
   1:  0.46   2:  1.00   3:  1.00   4:  0.00   5:  0.85   6:  0.59   7:  0.55   8: 17.60
   9: 15.43  10:  3.59  11: 11.93  12: 40.72  13: 86.35  14:  0.67  15: 68.17  16:  9.90
  17:119.98  18: 99.29  19:139.04  20: 16.58  21:  0.62  22: 19.64  23:  3.72  24:335.49
  25:415.95  26:115.21  27: 39.65  28: 34.76  29:149.50  30:129.50  31: 78.93  32:104.32
  33: 32.01  34:157.04  35:411.29  36:577.55  37:126.08  38:121.41  39: 34.26  40:  0.32
  41: 11.32  42: 28.70
 Raman intensities (Ä⁴*amu⁻¹)
   1:  0.00   2:  0.00   3:  0.00   4:  0.00   5:  0.00   6:  0.00   7:  0.00   8:  0.00
   9:  0.00  10:  0.00  11:  0.00  12:  0.00  13:  0.00  14:  0.00  15:  0.00  16:  0.00
  17:  0.00  18:  0.00  19:  0.00  20:  0.00  21:  0.00  22:  0.00  23:  0.00  24:  0.00
  25:  0.00  26:  0.00  27:  0.00  28:  0.00  29:  0.00  30:  0.00  31:  0.00  32:  0.00
  33:  0.00  34:  0.00  35:  0.00  36:  0.00  37:  0.00  38:  0.00  39:  0.00  40:  0.00
  41:  0.00  42:  0.00
 output can be read by thermo (or use thermo option).
 writing <g98.out> molden fake output.
 recommended (thermochemical) frequency scaling factor: 1.0
           -------------------------------------------------
          |             Thermodynamic Functions             |
           -------------------------------------------------

Refinement of some symmetry elements was terminated before convergence was reached.
Some symmetry elements may remain unidentified.
Molecule has no symmetry elements
It seems to be the C1 point group
c1  symmetry found (for desy threshold:  0.10E+00) used in thermo

          ...................................................
          :                      SETUP                      :
          :.................................................:
          :  # frequencies                          36      :
          :  # imaginary freq.                       0      :
          :  linear?                             false      :
          :  only rotor calc.                    false      :
          :  symmetry                               c1      :
          :  rotational number                       1      :
          :  scaling factor                  1.0000000      :
          :  rotor cutoff                   50.0000000 cm⁻¹ :
          :  imag. cutoff                  -20.0000000 cm⁻¹ :
          :.................................................:

    mode    ω/cm⁻¹     T·S(HO)/kcal·mol⁻¹    T·S(FR)/kcal·mol⁻¹   T·S(vib)
   ------------------------------------------------------------------------
       1     29.36    -1.75077 ( 10.63%)    -1.21384 ( 89.37%)    -1.27090
       2     58.09    -1.34794 ( 64.56%)    -1.01191 ( 35.44%)    -1.22886
       3     99.61    -1.03216 ( 94.03%)    -0.85224 (  5.97%)    -1.02142
       4    128.89    -0.88328 ( 97.79%)    -0.77593 (  2.21%)    -0.88091
       5    177.91    -0.70071 ( 99.38%)    -0.68047 (  0.62%)    -0.70058
       6    292.89    -0.43446 ( 99.92%)    -0.53282 (  0.08%)    -0.43454
   ------------------------------------------------------------------------

   temp. (K)  partition function   enthalpy   heat capacity  entropy
                                   cal/mol     cal/K/mol   cal/K/mol   J/K/mol
 298.15  VIB   920.                 3860.326     22.884     24.456
         ROT  0.434E+06              888.752      2.981     28.777
         INT  0.399E+09             4749.078     25.865     53.233
         TR   0.124E+28             1481.254      4.968     40.195
         TOT                        6230.3324    30.8327    93.4285   390.9046

       T/K    H(0)-H(T)+PV         H(T)/Eh          T*S/Eh         G(T)/Eh
   ------------------------------------------------------------------------
    298.15    0.992867E-02    0.109881E+00    0.443909E-01    0.654903E-01
   ------------------------------------------------------------------------

         :::::::::::::::::::::::::::::::::::::::::::::::::::::
         ::                  THERMODYNAMIC                  ::
         :::::::::::::::::::::::::::::::::::::::::::::::::::::
         :: total free energy         -27.432640210587 Eh   ::
         ::.................................................::
         :: total energy              -27.498130486970 Eh   ::
         :: zero point energy           0.099952482334 Eh   ::
         :: G(RRHO) w/o ZPVE           -0.034462205951 Eh   ::
         :: G(RRHO) contrib.            0.065490276383 Eh   ::
         :::::::::::::::::::::::::::::::::::::::::::::::::::::

optimized geometry written to: xtbopt.xyz


           -------------------------------------------------
          | TOTAL ENERGY              -27.498130486970 Eh   |
          | TOTAL ENTHALPY            -27.388249338001 Eh   |
          | TOTAL FREE ENERGY         -27.432640210587 Eh   |
          | GRADIENT NORM               0.000042269196 Eh/α |
          | HOMO-LUMO GAP               4.321454485484 eV   |
           -------------------------------------------------

------------------------------------------------------------------------
 * finished run on 2025/01/10 at 14:27:02.649     
------------------------------------------------------------------------
 total:
 * wall-time:     0 d,  0 h,  0 min,  0.153 sec
 *  cpu-time:     0 d,  0 h,  0 min,  1.181 sec
 * ratio c/w:     7.709 speedup
 SCF:
 * wall-time:     0 d,  0 h,  0 min,  0.010 sec
 *  cpu-time:     0 d,  0 h,  0 min,  0.071 sec
 * ratio c/w:     7.372 speedup
 ANC optimizer:
 * wall-time:     0 d,  0 h,  0 min,  0.013 sec
 *  cpu-time:     0 d,  0 h,  0 min,  0.091 sec
 * ratio c/w:     7.071 speedup
 analytical hessian:
 * wall-time:     0 d,  0 h,  0 min,  0.117 sec
 *  cpu-time:     0 d,  0 h,  0 min,  0.926 sec
 * ratio c/w:     7.945 speedup

normal termination of xtb
