      -----------------------------------------------------------      
     |                   =====================                   |     
     |                           x T B                           |     
     |                   =====================                   |     
     |                         S. Grimme                         |     
     |          Mulliken Center for Theoretical Chemistry        |     
     |                    University of Bonn                     |     
      -----------------------------------------------------------      

   * xtb version 6.7.1 (edcfbbe) compiled by 'albert@albert-system' on 2024-07-22

   xtb is free software: you can redistribute it and/or modify it under
   the terms of the GNU Lesser General Public License as published by
   the Free Software Foundation, either version 3 of the License, or
   (at your option) any later version.
   
   xtb is distributed in the hope that it will be useful,
   but WITHOUT ANY WARRANTY; without even the implied warranty of
   MERCHANTABILITY or FITNESS FOR A PARTICULAR PURPOSE.  See the
   GNU Lesser General Public License for more details.
   
   Cite this work as:
   * C. Bannwarth, E. Caldeweyher, S. Ehlert, A. Hansen, P. Pracht,
     J. Seibert, S. Spicher, S. Grimme, WIREs Comput. Mol. Sci., 2020, 11,
     e01493. DOI: 10.1002/wcms.1493
   
   for GFN2-xTB:
   * C. Bannwarth, S. Ehlert and S. Grimme., J. Chem. Theory Comput., 2019,
     15, 1652-1671. DOI: 10.1021/acs.jctc.8b01176
   for GFN1-xTB:
   * S. Grimme, C. Bannwarth, P. Shushkov, J. Chem. Theory Comput., 2017,
     13, 1989-2009. DOI: 10.1021/acs.jctc.7b00118
   for GFN0-xTB:
   * P. Pracht, E. Caldeweyher, S. Ehlert, S. Grimme, ChemRxiv, 2019, preprint.
     DOI: 10.26434/chemrxiv.8326202.v1
   for GFN-FF:
   * S. Spicher and S. Grimme, Angew. Chem. Int. Ed., 2020, 59, 15665-15673.
     DOI: 10.1002/anie.202004239
   
   for ALPB and GBSA implicit solvation:
   * S. Ehlert, M. Stahn, S. Spicher, S. Grimme, J. Chem. Theory Comput.,
     2021, 17, 4250-4261. DOI: 10.1021/acs.jctc.1c00471
   
   for ddCOSMO and CPCM-X implicit solvation:
   * M. Stahn, S. Ehlert, S. Grimme, J. Phys. Chem. A,
     2023, XX, XXXX-XXXX. DOI: 10.1021/acs.jpca.3c04382
   
   for DFT-D4:
   * E. Caldeweyher, C. Bannwarth and S. Grimme, J. Chem. Phys., 2017,
     147, 034112. DOI: 10.1063/1.4993215
   * E. Caldeweyher, S. Ehlert, A. Hansen, H. Neugebauer, S. Spicher,
     C. Bannwarth and S. Grimme, J. Chem. Phys., 2019, 150, 154122.
     DOI: 10.1063/1.5090222
   * E. Caldeweyher, J.-M. Mewes, S. Ehlert and S. Grimme, Phys. Chem. Chem. Phys.
     2020, 22, 8499-8512. DOI: 10.1039/D0CP00502A
   
   for sTDA-xTB:
   * S. Grimme and C. Bannwarth, J. Chem. Phys., 2016, 145, 054103.
     DOI: 10.1063/1.4959605
   
   in the mass-spec context:
   * V. Asgeirsson, C. Bauer and S. Grimme, Chem. Sci., 2017, 8, 4879.
     DOI: 10.1039/c7sc00601b
   * J. Koopman and S. Grimme, ACS Omega 2019, 4, 12, 15120-15133.
     DOI: 10.1021/acsomega.9b02011
   
   for metadynamics refer to:
   * S. Grimme, J. Chem. Theory Comput., 2019, 155, 2847-2862
     DOI: 10.1021/acs.jctc.9b00143
   
   for SPH calculations refer to:
   * S. Spicher and S. Grimme, J. Chem. Theory Comput., 2021, 17, 1701-1714
     DOI: 10.1021/acs.jctc.0c01306
   
   for ONIOM refer to:
   * C. Plett, A. Katbashev, S. Ehlert, S. Grimme, M. Bursch,
     Phys. Chem. Chem. Phys., 2023, 25, 17860-17868. DOI: 10.1039/D3CP02178E
   
   for DIPRO refer to:
   * J. Kohn, N. Gildemeister, S. Grimme, D. Fazzi, A. Hansen,
     J. Chem. Phys., 2023, just accepted.
   
   for PTB refer to:
   * S. Grimme, M. Mueller, A. Hansen, J. Chem. Phys., 2023, 158, 124111.
     DOI: 10.1063/5.0137838
   
   with help from (in alphabetical order)
   P. Atkinson, C. Bannwarth, F. Bohle, G. Brandenburg, E. Caldeweyher
   M. Checinski, S. Dohm, S. Ehlert, S. Ehrlich, I. Gerasimov, C. Hölzer
   A. Katbashev, J. Kohn, J. Koopman, C. Lavigne, S. Lehtola, F. März, M. Müller,
   F. Musil, H. Neugebauer, J. Pisarek, C. Plett, P. Pracht, F. Pultar,
   J. Seibert, P. Shushkov, S. Spicher, M. Stahn, M. Steiner, T. Strunk,
   J. Stückrath, T. Rose, and J. Unsleber
   
 * started run on 2025/01/10 at 14:25:39.561     
   ID    Z sym.   atoms
    1    8 O      1, 4
    2    1 H      2, 3, 5, 6, 9, 11-13, 16
    3    6 C      7, 14
    4    7 N      8, 10, 15

           -------------------------------------------------
          |                Calculation Setup                |
           -------------------------------------------------

          program call               : /home/adpal/xtb-dist/bin/xtb ./results/p_{0,41}_coordinatesxTB.xyz --ohess --uhf 1 --parallel 8
          coordinate file            : ./results/p_{0,41}_coordinatesxTB.xyz
          omp threads                :                     8


           -------------------------------------------------
          |                 G F N 2 - x T B                 |
           -------------------------------------------------

        Reference                      10.1021/acs.jctc.8b01176
      * Hamiltonian:
        H0-scaling (s, p, d)           1.850000    2.230000    2.230000
        zeta-weighting                 0.500000
      * Dispersion:
        s8                             2.700000
        a1                             0.520000
        a2                             5.000000
        s9                             5.000000
      * Repulsion:
        kExp                           1.500000    1.000000
        rExp                           1.000000
      * Coulomb:
        alpha                          2.000000
        third order                    shell-resolved
        anisotropic                    true
        a3                             3.000000
        a5                             4.000000
        cn-shift                       1.200000
        cn-exp                         4.000000
        max-rad                        5.000000

q/qsh data taken from xtbrestart
CAMM data taken from xtbrestart

          ...................................................
          :                      SETUP                      :
          :.................................................:
          :  # basis functions                  37          :
          :  # atomic orbitals                  37          :
          :  # shells                           23          :
          :  # electrons                        44          :
          :  max. iterations                   250          :
          :  Hamiltonian                  GFN2-xTB          :
          :  restarted?                       true          :
          :  GBSA solvation                  false          :
          :  PC potential                    false          :
          :  electronic temp.          300.0000000     K    :
          :  accuracy                    1.0000000          :
          :  -> integral cutoff          0.2500000E+02      :
          :  -> integral neglect         0.1000000E-07      :
          :  -> SCF convergence          0.1000000E-05 Eh   :
          :  -> wf. convergence          0.1000000E-03 e    :
          :  Broyden damping             0.4000000          :
          :  net charge                          0          :
          :  unpaired electrons                  1          :
          ...................................................

 iter      E             dE          RMSdq      gap      omega  full diag
   1    -25.9655949 -0.259656E+02  0.110E-06   10.54       0.0  T
   2    -25.9655949 -0.390799E-13  0.707E-07   10.54   35378.5  T
   3    -25.9655949  0.355271E-13  0.144E-07   10.54  100000.0  T

   *** convergence criteria satisfied after 3 iterations ***

         #    Occupation            Energy/Eh            Energy/eV
      -------------------------------------------------------------
         1        2.0000           -0.7143789             -19.4392
       ...           ...                  ...                  ...
        16        2.0000           -0.4820723             -13.1179
        17        2.0000           -0.4545384             -12.3686
        18        2.0000           -0.4452999             -12.1172
        19        2.0000           -0.4292514             -11.6805
        20        2.0000           -0.4069656             -11.0741
        21        2.0000           -0.3962963             -10.7838
        22        2.0000           -0.3751619             -10.2087 (HOMO)
        23                          0.0120819               0.3288 (LUMO)
        24                          0.0457848               1.2459
        25                          0.0533984               1.4530
        26                          0.0718402               1.9549
        27                          0.0901518               2.4532
       ...                                ...                  ...
        37                          0.2881479               7.8409
      -------------------------------------------------------------
                  HL-Gap            0.3872438 Eh           10.5374 eV
             Fermi-level           -0.1815400 Eh           -4.9400 eV

 SCC (total)                   0 d,  0 h,  0 min,  0.009 sec
 SCC setup                      ...        0 min,  0.000 sec (  2.469%)
 Dispersion                     ...        0 min,  0.000 sec (  1.875%)
 classical contributions        ...        0 min,  0.000 sec (  0.626%)
 integral evaluation            ...        0 min,  0.001 sec (  9.237%)
 iterations                     ...        0 min,  0.005 sec ( 57.343%)
 molecular gradient             ...        0 min,  0.002 sec ( 25.831%)
 printout                       ...        0 min,  0.000 sec (  2.336%)

         :::::::::::::::::::::::::::::::::::::::::::::::::::::
         ::                     SUMMARY                     ::
         :::::::::::::::::::::::::::::::::::::::::::::::::::::
         :: total energy             -25.748530928256 Eh    ::
         :: gradient norm              0.000039779613 Eh/a0 ::
         :: HOMO-LUMO gap             10.537440132898 eV    ::
         ::.................................................::
         :: SCC energy               -25.965561849866 Eh    ::
         :: -> isotropic ES            0.083030557619 Eh    ::
         :: -> anisotropic ES         -0.001658376121 Eh    ::
         :: -> anisotropic XC          0.010406319037 Eh    ::
         :: -> dispersion             -0.009031753327 Eh    ::
         :: repulsion energy           0.217030921610 Eh    ::
         :: add. restraining           0.000000000000 Eh    ::
         :: total charge               0.000000000000 e     ::
         :::::::::::::::::::::::::::::::::::::::::::::::::::::

      ----------------------------------------------------------- 
     |                   =====================                   |
     |                        A N C O P T                        |
     |                   =====================                   |
     |               Approximate Normal Coordinate               |
     |                Rational Function Optimizer                |
      ----------------------------------------------------------- 
      ----------------------------------------------------------- 
     |                   =====================                   |
     |                        A N C O P T                        |
     |                   =====================                   |
     |               Approximate Normal Coordinate               |
     |                Rational Function Optimizer                |
      ----------------------------------------------------------- 

          ...................................................
          :                      SETUP                      :
          :.................................................:
          :   optimization level            normal          :
          :   max. optcycles                   200          :
          :   ANC micro-cycles                  20          :
          :   degrees of freedom                42          :
          :.................................................:
          :   RF solver                   davidson          :
          :   write xtbopt.log                true          :
          :   linear?                        false          :
          :   energy convergence         0.5000000E-05 Eh   :
          :   grad. convergence          0.1000000E-02 Eh/α :
          :   maxmium RF displ.          1.0000000          :
          :   Hlow (freq-cutoff)         0.1000000E-01      :
          :   Hmax (freq-cutoff)         5.0000000          :
          :   S6 in model hess.         20.0000000          :
          ...................................................

generating ANC from exact Hessian ...
Using Lindh-Hessian (1995)
 Shifting diagonal of input Hessian by   7.888011819580853E-003
 Lowest  eigenvalues of input Hessian
    0.000000    0.000000    0.000000    0.000000    0.000000    0.000000
    0.010000    0.012880    0.016745    0.023152    0.024998    0.030657
    0.031847    0.033596    0.044473    0.046337    0.052717    0.084702
 Highest eigenvalues
    1.382807    1.437348    1.495730    1.601239    1.669167    1.694562
 

........................................................................
.............................. CYCLE    1 ..............................
........................................................................

 iter      E             dE          RMSdq      gap      omega  full diag
   1    -25.9655949 -0.259656E+02  0.581E-08   10.54       0.0  T
   2    -25.9655949  0.177636E-13  0.325E-08   10.54  100000.0  T
   3    -25.9655949  0.248690E-13  0.142E-08   10.54  100000.0  T
     SCC iter.                  ...        0 min,  0.001 sec
     gradient                   ...        0 min,  0.001 sec
 * total energy  :   -25.7485309 Eh     change        0.1065814E-13 Eh
   gradient norm :     0.0000398 Eh/α   predicted     0.0000000E+00 (-100.00%)
   displ. norm   :     0.0011820 α      lambda       -0.8173575E-08
   maximum displ.:     0.0011195 α      in ANC's #1, #3, #2, ...

   *** GEOMETRY OPTIMIZATION CONVERGED AFTER 1 ITERATIONS ***

------------------------------------------------------------------------
 total energy gain   :         0.0000000 Eh        0.0000 kcal/mol
 total RMSD          :         0.0000000 a0        0.0000 Å
 total power (kW/mol):         0.0000000 (step)    0.0000 (real)
------------------------------------------------------------------------

 ANCopt (total)                0 d,  0 h,  0 min,  0.007 sec
 optimizer setup                ...        0 min,  0.000 sec (  1.500%)
 model hessian                  ...        0 min,  0.003 sec ( 45.764%)
 ANC generation                 ...        0 min,  0.000 sec (  4.886%)
 coordinate transformation      ...        0 min,  0.000 sec (  0.166%)
 single point calculation       ...        0 min,  0.003 sec ( 40.487%)
 optimization log               ...        0 min,  0.000 sec (  3.178%)
 hessian update                 ...        0 min,  0.000 sec (  0.030%)
 rational function              ...        0 min,  0.000 sec (  2.347%)

================
 final structure:
================
16
 xtb: 6.7.1 (edcfbbe)
O            3.45596659207709       -1.20130351290639        1.64887699291216
H            2.07830835101463        1.04061265962231        1.77115388143590
H            3.63104790514372       -0.67108714130688        2.43767651382932
O            3.95092016381954        0.56831808401690        0.24787881601468
H            1.36281134279266        0.80129335181495        0.31480946388042
H            4.40756953985902        0.54844446078444       -2.27152692424966
C            2.96727714350784       -0.37798820664107        0.65677217005967
N            1.80826891818811        0.33404727778589        1.09356727862065
H            2.70964967240959       -1.03465869039721       -0.18463799315511
N            6.13279392931057        0.96379851205162       -0.23661411669596
H            5.42143882251827       -0.75618606238042       -2.27310679064397
H            6.94347728093984        0.69277746589022       -0.77997132082186
H            5.83007257580338        1.88772892732153       -0.52433099408578
C            5.05661048391949        0.01691071986772       -0.40911089220825
N            4.67148114603020       -0.29549042419067       -1.77376214343906
H            5.35377613266602       -0.92946742133324        0.06944605854648
 
 Bond Distances (Angstroems)
 ---------------------------
O1-H3=0.9664         O1-C7=1.3787         H2-N8=1.0155         H3-O1=0.9664         O4-C7=1.4249         O4-C14=1.3994        
H5-N8=1.0115         H6-N15=1.0147        C7-O1=1.3787         C7-O4=1.4249         C7-N8=1.4287         C7-H9=1.0980         
N8-H2=1.0155         N8-H5=1.0115         N8-C7=1.4287         H9-C7=1.0980         N10-H12=1.0129       N10-H13=1.0139       
N10-C14=1.4438       H11-N15=1.0119       H12-N10=1.0129       H13-N10=1.0139       C14-O4=1.3994        C14-N10=1.4438       
C14-N15=1.4520       C14-H16=1.1013       N15-H6=1.0147        N15-H11=1.0119       N15-C14=1.4520       H16-C14=1.1013       
 C  H  Rav=1.0997 sigma=0.0017  Rmin=1.0980  Rmax=1.1013     2
 N  H  Rav=1.0134 sigma=0.0014  Rmin=1.0115  Rmax=1.0155     6
 N  C  Rav=1.4415 sigma=0.0097  Rmin=1.4287  Rmax=1.4520     3
 O  H  Rav=0.9664 sigma=0.0000  Rmin=0.9664  Rmax=0.9664     1
 O  C  Rav=1.4010 sigma=0.0189  Rmin=1.3787  Rmax=1.4249     3
 
 selected bond angles (degree)
 --------------------
C7-O1-H3=108.90                C14-O4-C7=114.74               O4-C7-O1=111.00                N8-C7-O1=111.42                
N8-C7-O4=108.47                H9-C7-O1=106.11                H9-C7-O4=109.83                H9-C7-N8=110.00                
H5-N8-H2=108.02                C7-N8-H2=109.57                C7-N8-H5=110.62                H13-N10-H12=109.30             
C14-N10-H12=110.92             C14-N10-H13=109.95             
 
 selected dihedral angles (degree)
 ---------------------------------
O4-C7-O1-H3= 65.14            N8-C7-O1-H3=304.14            H9-C7-O1-H3=184.42            O1-C7-O4-C14= 67.28           
N8-C7-O4-C14=190.00           H9-C7-O4-C14=310.25           H2-N8-C7-O1= 71.30            H2-N8-C7-O4=308.83            
H2-N8-C7-H9=188.68            H5-N8-C7-O1=190.29            H5-N8-C7-O4= 67.81            H5-N8-C7-H9=307.67            
           -------------------------------------------------
          |                Final Singlepoint                |
           -------------------------------------------------

          ...................................................
          :                      SETUP                      :
          :.................................................:
          :  # basis functions                  37          :
          :  # atomic orbitals                  37          :
          :  # shells                           23          :
          :  # electrons                        44          :
          :  max. iterations                   250          :
          :  Hamiltonian                  GFN2-xTB          :
          :  restarted?                      false          :
          :  GBSA solvation                  false          :
          :  PC potential                    false          :
          :  electronic temp.          300.0000000     K    :
          :  accuracy                    1.0000000          :
          :  -> integral cutoff          0.2500000E+02      :
          :  -> integral neglect         0.1000000E-07      :
          :  -> SCF convergence          0.1000000E-05 Eh   :
          :  -> wf. convergence          0.1000000E-03 e    :
          :  Broyden damping             0.4000000          :
          :  net charge                          0          :
          :  unpaired electrons                  1          :
          ...................................................

 iter      E             dE          RMSdq      gap      omega  full diag
   1    -25.9655949 -0.259656E+02  0.355E-09   10.54       0.0  T
   2    -25.9655949  0.710543E-14  0.227E-09   10.54  100000.0  T
   3    -25.9655949  0.000000E+00  0.573E-10   10.54  100000.0  T

   *** convergence criteria satisfied after 3 iterations ***

         #    Occupation            Energy/Eh            Energy/eV
      -------------------------------------------------------------
         1        2.0000           -0.7143789             -19.4392
       ...           ...                  ...                  ...
        16        2.0000           -0.4820723             -13.1179
        17        2.0000           -0.4545384             -12.3686
        18        2.0000           -0.4452999             -12.1172
        19        2.0000           -0.4292514             -11.6805
        20        2.0000           -0.4069656             -11.0741
        21        2.0000           -0.3962963             -10.7838
        22        2.0000           -0.3751619             -10.2087 (HOMO)
        23                          0.0120819               0.3288 (LUMO)
        24                          0.0457848               1.2459
        25                          0.0533984               1.4530
        26                          0.0718402               1.9549
        27                          0.0901518               2.4532
       ...                                ...                  ...
        37                          0.2881479               7.8409
      -------------------------------------------------------------
                  HL-Gap            0.3872438 Eh           10.5374 eV
             Fermi-level           -0.1815400 Eh           -4.9400 eV

 SCC (total)                   0 d,  0 h,  0 min,  0.003 sec
 SCC setup                      ...        0 min,  0.000 sec (  3.672%)
 Dispersion                     ...        0 min,  0.000 sec (  1.513%)
 classical contributions        ...        0 min,  0.000 sec (  0.450%)
 integral evaluation            ...        0 min,  0.000 sec ( 14.681%)
 iterations                     ...        0 min,  0.001 sec ( 37.761%)
 molecular gradient             ...        0 min,  0.001 sec ( 36.534%)
 printout                       ...        0 min,  0.000 sec (  4.662%)

         :::::::::::::::::::::::::::::::::::::::::::::::::::::
         ::                     SUMMARY                     ::
         :::::::::::::::::::::::::::::::::::::::::::::::::::::
         :: total energy             -25.748530928256 Eh    ::
         :: gradient norm              0.000039779573 Eh/a0 ::
         :: HOMO-LUMO gap             10.537440133686 eV    ::
         ::.................................................::
         :: SCC energy               -25.965561849866 Eh    ::
         :: -> isotropic ES            0.083030558860 Eh    ::
         :: -> anisotropic ES         -0.001658376210 Eh    ::
         :: -> anisotropic XC          0.010406318987 Eh    ::
         :: -> dispersion             -0.009031753326 Eh    ::
         :: repulsion energy           0.217030921610 Eh    ::
         :: add. restraining           0.000000000000 Eh    ::
         :: total charge               0.000000000000 e     ::
         :::::::::::::::::::::::::::::::::::::::::::::::::::::

           ------------------------------------------------- 
          |                Numerical Hessian                |
           ------------------------------------------------- 
step length          :   0.00500
SCC accuracy         :   0.30000
Hessian scale factor :   1.00000
frozen atoms in %    :   0.00000    0
RMS gradient         :   0.00004
estimated CPU  time      0.04 min
estimated wall time      0.00 min

writing file <hessian>.

 projected vibrational frequencies (cm⁻¹)
eigval :       -0.00    -0.00    -0.00    -0.00     0.00     0.00
eigval :       61.75    78.40   170.50   214.07   238.12   266.53
eigval :      311.02   355.10   436.39   458.07   493.32   552.16
eigval :      606.52   856.26   886.79   906.19   956.44   969.53
eigval :      993.55  1028.21  1087.28  1095.53  1117.72  1151.00
eigval :     1219.15  1260.20  1290.83  1309.82  1332.08  1354.95
eigval :     1527.61  1537.56  1547.52  2879.36  2926.26  3393.46
eigval :     3396.29  3400.91  3439.92  3447.74  3452.94  3509.40
           -------------------------------------------------
          |                Property Printout                |
           -------------------------------------------------

    * Orbital Energies and Occupations

         #    Occupation            Energy/Eh            Energy/eV
      -------------------------------------------------------------
         1        2.0000           -0.7143789             -19.4392
       ...           ...                  ...                  ...
        10        2.0000           -0.5553928             -15.1130
        11        2.0000           -0.5470136             -14.8850
        12        2.0000           -0.5328736             -14.5002
        13        2.0000           -0.5189162             -14.1204
        14        2.0000           -0.5078719             -13.8199
        15        2.0000           -0.4958686             -13.4933
        16        2.0000           -0.4820723             -13.1179
        17        2.0000           -0.4545384             -12.3686
        18        2.0000           -0.4452999             -12.1172
        19        2.0000           -0.4292515             -11.6805
        20        2.0000           -0.4069656             -11.0741
        21        2.0000           -0.3962963             -10.7838
        22        2.0000           -0.3751619             -10.2087 (HOMO)
        23                          0.0120819               0.3288 (LUMO)
        24                          0.0457848               1.2459
        25                          0.0533984               1.4530
        26                          0.0718402               1.9549
        27                          0.0901518               2.4532
        28                          0.1060944               2.8870
        29                          0.1265962               3.4449
        30                          0.1444941               3.9319
        31                          0.1609822               4.3805
        32                          0.1813656               4.9352
        33                          0.2146263               5.8403
       ...                                ...                  ...
        37                          0.2881479               7.8409
      -------------------------------------------------------------
                  HL-Gap            0.3872438 Eh           10.5374 eV
             Fermi-level           -0.1815400 Eh           -4.9400 eV

     #   Z          covCN         q      C6AA      α(0)
     1   8 O        1.658    -0.435    21.549     6.267
     2   1 H        0.860     0.165     1.302     1.787
     3   1 H        0.805     0.313     0.684     1.299
     4   8 O        1.703    -0.366    20.189     6.066
     5   1 H        0.860     0.165     1.305     1.789
     6   1 H        0.860     0.152     1.390     1.847
     7   6 C        3.555     0.315    16.649     5.958
     8   7 N        2.630    -0.357    29.199     8.025
     9   1 H        0.923     0.046     2.372     2.409
    10   7 N        2.630    -0.364    29.386     8.051
    11   1 H        0.860     0.148     1.413     1.862
    12   1 H        0.860     0.150     1.401     1.854
    13   1 H        0.860     0.158     1.345     1.817
    14   6 C        3.611     0.263    17.007     5.955
    15   7 N        2.629    -0.382    29.875     8.118
    16   1 H        0.923     0.030     2.593     2.518

 Mol. C6AA /au·bohr⁶  :       1980.671395
 Mol. C8AA /au·bohr⁸  :      39777.941108
 Mol. α(0) /au        :         65.622211


Wiberg/Mayer (AO) data.
largest (>0.10) Wiberg bond orders for each atom

 ---------------------------------------------------------------------------
     #   Z sym  total        # sym  WBO       # sym  WBO       # sym  WBO
 ---------------------------------------------------------------------------
     1   8 O    2.000 --     7 C    1.014     3 H    0.881
     2   1 H    0.973 --     8 N    0.954
     3   1 H    0.902 --     1 O    0.881
     4   8 O    2.069 --    14 C    0.971     7 C    0.919
     5   1 H    0.973 --     8 N    0.957
     6   1 H    0.977 --    15 N    0.961
     7   6 C    3.932 --     8 N    1.030     1 O    1.014     9 H    0.948
                             4 O    0.919
     8   7 N    3.029 --     7 C    1.030     5 H    0.957     2 H    0.954
     9   1 H    0.998 --     7 C    0.948
    10   7 N    3.019 --    14 C    1.008    12 H    0.962    13 H    0.958
    11   1 H    0.978 --    15 N    0.963
    12   1 H    0.977 --    10 N    0.962
    13   1 H    0.975 --    10 N    0.958
    14   6 C    3.948 --    10 N    1.008    15 N    0.994     4 O    0.971
                            16 H    0.951
    15   7 N    3.017 --    14 C    0.994    11 H    0.963     6 H    0.961
    16   1 H    0.999 --    14 C    0.951
 ---------------------------------------------------------------------------

Topologies differ in total number of bonds
Writing topology from bond orders to xtbtopo.mol

molecular dipole:
                 x           y           z       tot (Debye)
 q only:        0.140       0.447      -0.221
   full:        0.565       0.972      -0.760       3.449
molecular quadrupole (traceless):
                xx          xy          yy          xz          yz          zz
 q only:        3.056       2.894      -4.871      -5.296       0.818       1.815
  q+dip:        7.172       6.781      -7.827     -12.868       0.591       0.655
   full:        7.441       6.526      -7.995     -13.117       0.590       0.553

           -------------------------------------------------
          |                Geometry Summary                 |
           -------------------------------------------------

      molecular mass/u    :      107.1118580
   center of mass at/Å    :        4.0105426       0.0108791       0.1776336
  moments of inertia/u·Å² :        0.1082424E+03   0.3217335E+03   0.3347137E+03
rotational constants/cm⁻¹ :        0.1557396E+00   0.5239625E-01   0.5036433E-01

 * 15 selected distances

     #   Z          #   Z                                           value/Å
     1   8 O        3   1 H                                       0.9664304 (min)
     1   8 O        7   6 C                                       1.3787450
     4   8 O        7   6 C                                       1.4248661
     2   1 H        8   7 N                                       1.0155194
     5   1 H        8   7 N                                       1.0115410
     7   6 C        8   7 N                                       1.4286654
     7   6 C        9   1 H                                       1.0979797
    10   7 N       12   1 H                                       1.0128658
    10   7 N       13   1 H                                       1.0139373
     4   8 O       14   6 C                                       1.3993702
    10   7 N       14   6 C                                       1.4437877
     6   1 H       15   7 N                                       1.0147144
    11   1 H       15   7 N                                       1.0119398
    14   6 C       15   7 N                                       1.4519616 (max)
    14   6 C       16   1 H                                       1.1013428

 * 5 distinct bonds (by element types)

   Z      Z             #   av. dist./Å        max./Å        min./Å
   1 H    6 C           2     1.0996612     1.1013428     1.0979797
   1 H    7 N           6     1.0134196     1.0155194     1.0115410
   6 C    7 N           3     1.4414716     1.4519616     1.4286654
   1 H    8 O           1     0.9664304     0.9664304     0.9664304
   6 C    8 O           3     1.4009938     1.4248661     1.3787450

           -------------------------------------------------
          |               Frequency Printout                |
           -------------------------------------------------
 projected vibrational frequencies (cm⁻¹)
eigval :       -0.00    -0.00    -0.00    -0.00     0.00     0.00
eigval :       61.75    78.40   170.50   214.07   238.12   266.53
eigval :      311.02   355.10   436.39   458.07   493.32   552.16
eigval :      606.52   856.26   886.79   906.19   956.44   969.53
eigval :      993.55  1028.21  1087.28  1095.53  1117.72  1151.00
eigval :     1219.15  1260.20  1290.83  1309.82  1332.08  1354.95
eigval :     1527.61  1537.56  1547.52  2879.36  2926.26  3393.46
eigval :     3396.29  3400.91  3439.92  3447.74  3452.94  3509.40
 reduced masses (amu)
   1: 11.95   2: 12.78   3: 12.23   4: 12.93   5: 13.24   6: 12.42   7: 12.14   8: 12.42
   9: 10.48  10:  2.49  11:  1.71  12:  3.06  13:  7.75  14:  5.53  15: 11.03  16: 11.19
  17: 10.27  18: 10.68  19: 10.99  20:  4.37  21:  7.46  22:  8.52  23:  8.47  24: 12.68
  25:  9.45  26:  5.16  27:  8.25  28:  5.03  29:  9.53  30:  9.45  31:  5.99  32:  4.73
  33:  4.19  34:  2.54  35:  3.76  36:  3.78  37:  2.25  38:  2.19  39:  2.21  40:  1.70
  41:  1.72  42:  1.64  43:  1.56  44:  1.50  45:  2.08  46:  2.03  47:  1.95  48:  1.86
 IR intensities (km·mol⁻¹)
   1:  0.48   2:  0.23   3:  1.51   4:  0.58   5:  0.30   6:  1.20   7:  0.87   8:  4.95
   9:  8.18  10:  8.91  11: 58.50  12: 74.81  13:102.12  14: 55.83  15:  6.49  16: 11.01
  17: 23.65  18: 26.31  19: 22.37  20:325.75  21: 70.13  22: 27.64  23: 64.29  24:356.91
  25:258.29  26: 44.16  27:129.62  28:177.21  29: 76.86  30:104.80  31: 40.83  32: 70.32
  33: 35.40  34: 24.38  35: 22.65  36:136.71  37: 35.66  38: 44.01  39: 48.15  40: 49.89
  41: 34.49  42:  2.95  43:  6.92  44:  4.67  45:  1.85  46:  7.90  47:  0.44  48: 13.78
 Raman intensities (Ä⁴*amu⁻¹)
   1:  0.00   2:  0.00   3:  0.00   4:  0.00   5:  0.00   6:  0.00   7:  0.00   8:  0.00
   9:  0.00  10:  0.00  11:  0.00  12:  0.00  13:  0.00  14:  0.00  15:  0.00  16:  0.00
  17:  0.00  18:  0.00  19:  0.00  20:  0.00  21:  0.00  22:  0.00  23:  0.00  24:  0.00
  25:  0.00  26:  0.00  27:  0.00  28:  0.00  29:  0.00  30:  0.00  31:  0.00  32:  0.00
  33:  0.00  34:  0.00  35:  0.00  36:  0.00  37:  0.00  38:  0.00  39:  0.00  40:  0.00
  41:  0.00  42:  0.00  43:  0.00  44:  0.00  45:  0.00  46:  0.00  47:  0.00  48:  0.00
 output can be read by thermo (or use thermo option).
 writing <g98.out> molden fake output.
 recommended (thermochemical) frequency scaling factor: 1.0
           -------------------------------------------------
          |             Thermodynamic Functions             |
           -------------------------------------------------

Refinement of some symmetry elements was terminated before convergence was reached.
Some symmetry elements may remain unidentified.
Molecule has no symmetry elements
It seems to be the C1 point group
c1  symmetry found (for desy threshold:  0.10E+00) used in thermo

          ...................................................
          :                      SETUP                      :
          :.................................................:
          :  # frequencies                          42      :
          :  # imaginary freq.                       0      :
          :  linear?                             false      :
          :  only rotor calc.                    false      :
          :  symmetry                               c1      :
          :  rotational number                       1      :
          :  scaling factor                  1.0000000      :
          :  rotor cutoff                   50.0000000 cm⁻¹ :
          :  imag. cutoff                  -20.0000000 cm⁻¹ :
          :.................................................:

    mode    ω/cm⁻¹     T·S(HO)/kcal·mol⁻¹    T·S(FR)/kcal·mol⁻¹   T·S(vib)
   ------------------------------------------------------------------------
       1     61.75    -1.31199 ( 69.94%)    -0.99370 ( 30.06%)    -1.21630
       2     78.40    -1.17191 ( 85.80%)    -0.92306 ( 14.20%)    -1.13658
       3    170.50    -0.72449 ( 99.27%)    -0.69303 (  0.73%)    -0.72426
       4    214.07    -0.59890 ( 99.70%)    -0.62565 (  0.30%)    -0.59898
       5    238.12    -0.54170 ( 99.81%)    -0.59411 (  0.19%)    -0.54180
       6    266.53    -0.48260 ( 99.88%)    -0.56073 (  0.12%)    -0.48269
   ------------------------------------------------------------------------

   temp. (K)  partition function   enthalpy   heat capacity  entropy
                                   cal/mol     cal/K/mol   cal/K/mol   J/K/mol
 298.15  VIB   193.                 3813.529     25.411     22.816
         ROT  0.261E+06              888.752      2.981     27.765
         INT  0.505E+08             4702.282     28.392     50.581
         TR   0.107E+28             1481.254      4.968     39.905
         TOT                        6183.5354    33.3601    90.4853   378.5906

       T/K    H(0)-H(T)+PV         H(T)/Eh          T*S/Eh         G(T)/Eh
   ------------------------------------------------------------------------
    298.15    0.985409E-02    0.140886E+00    0.429925E-01    0.978936E-01
   ------------------------------------------------------------------------

         :::::::::::::::::::::::::::::::::::::::::::::::::::::
         ::                  THERMODYNAMIC                  ::
         :::::::::::::::::::::::::::::::::::::::::::::::::::::
         :: total free energy         -25.650637293046 Eh   ::
         ::.................................................::
         :: total energy              -25.748530928256 Eh   ::
         :: zero point energy           0.131032045037 Eh   ::
         :: G(RRHO) w/o ZPVE           -0.033138409826 Eh   ::
         :: G(RRHO) contrib.            0.097893635210 Eh   ::
         :::::::::::::::::::::::::::::::::::::::::::::::::::::

optimized geometry written to: xtbopt.xyz


           -------------------------------------------------
          | TOTAL ENERGY              -25.748530928256 Eh   |
          | TOTAL ENTHALPY            -25.607644792243 Eh   |
          | TOTAL FREE ENERGY         -25.650637293046 Eh   |
          | GRADIENT NORM               0.000039782646 Eh/α |
          | HOMO-LUMO GAP              10.537439977393 eV   |
           -------------------------------------------------

------------------------------------------------------------------------
 * finished run on 2025/01/10 at 14:25:39.718     
------------------------------------------------------------------------
 total:
 * wall-time:     0 d,  0 h,  0 min,  0.156 sec
 *  cpu-time:     0 d,  0 h,  0 min,  1.194 sec
 * ratio c/w:     7.675 speedup
 SCF:
 * wall-time:     0 d,  0 h,  0 min,  0.009 sec
 *  cpu-time:     0 d,  0 h,  0 min,  0.055 sec
 * ratio c/w:     6.067 speedup
 ANC optimizer:
 * wall-time:     0 d,  0 h,  0 min,  0.011 sec
 *  cpu-time:     0 d,  0 h,  0 min,  0.088 sec
 * ratio c/w:     7.982 speedup
 analytical hessian:
 * wall-time:     0 d,  0 h,  0 min,  0.120 sec
 *  cpu-time:     0 d,  0 h,  0 min,  0.955 sec
 * ratio c/w:     7.993 speedup

normal termination of xtb
