      -----------------------------------------------------------      
     |                   =====================                   |     
     |                           x T B                           |     
     |                   =====================                   |     
     |                         S. Grimme                         |     
     |          Mulliken Center for Theoretical Chemistry        |     
     |                    University of Bonn                     |     
      -----------------------------------------------------------      

   * xtb version 6.7.1 (edcfbbe) compiled by 'albert@albert-system' on 2024-07-22

   xtb is free software: you can redistribute it and/or modify it under
   the terms of the GNU Lesser General Public License as published by
   the Free Software Foundation, either version 3 of the License, or
   (at your option) any later version.
   
   xtb is distributed in the hope that it will be useful,
   but WITHOUT ANY WARRANTY; without even the implied warranty of
   MERCHANTABILITY or FITNESS FOR A PARTICULAR PURPOSE.  See the
   GNU Lesser General Public License for more details.
   
   Cite this work as:
   * C. Bannwarth, E. Caldeweyher, S. Ehlert, A. Hansen, P. Pracht,
     J. Seibert, S. Spicher, S. Grimme, WIREs Comput. Mol. Sci., 2020, 11,
     e01493. DOI: 10.1002/wcms.1493
   
   for GFN2-xTB:
   * C. Bannwarth, S. Ehlert and S. Grimme., J. Chem. Theory Comput., 2019,
     15, 1652-1671. DOI: 10.1021/acs.jctc.8b01176
   for GFN1-xTB:
   * S. Grimme, C. Bannwarth, P. Shushkov, J. Chem. Theory Comput., 2017,
     13, 1989-2009. DOI: 10.1021/acs.jctc.7b00118
   for GFN0-xTB:
   * P. Pracht, E. Caldeweyher, S. Ehlert, S. Grimme, ChemRxiv, 2019, preprint.
     DOI: 10.26434/chemrxiv.8326202.v1
   for GFN-FF:
   * S. Spicher and S. Grimme, Angew. Chem. Int. Ed., 2020, 59, 15665-15673.
     DOI: 10.1002/anie.202004239
   
   for ALPB and GBSA implicit solvation:
   * S. Ehlert, M. Stahn, S. Spicher, S. Grimme, J. Chem. Theory Comput.,
     2021, 17, 4250-4261. DOI: 10.1021/acs.jctc.1c00471
   
   for ddCOSMO and CPCM-X implicit solvation:
   * M. Stahn, S. Ehlert, S. Grimme, J. Phys. Chem. A,
     2023, XX, XXXX-XXXX. DOI: 10.1021/acs.jpca.3c04382
   
   for DFT-D4:
   * E. Caldeweyher, C. Bannwarth and S. Grimme, J. Chem. Phys., 2017,
     147, 034112. DOI: 10.1063/1.4993215
   * E. Caldeweyher, S. Ehlert, A. Hansen, H. Neugebauer, S. Spicher,
     C. Bannwarth and S. Grimme, J. Chem. Phys., 2019, 150, 154122.
     DOI: 10.1063/1.5090222
   * E. Caldeweyher, J.-M. Mewes, S. Ehlert and S. Grimme, Phys. Chem. Chem. Phys.
     2020, 22, 8499-8512. DOI: 10.1039/D0CP00502A
   
   for sTDA-xTB:
   * S. Grimme and C. Bannwarth, J. Chem. Phys., 2016, 145, 054103.
     DOI: 10.1063/1.4959605
   
   in the mass-spec context:
   * V. Asgeirsson, C. Bauer and S. Grimme, Chem. Sci., 2017, 8, 4879.
     DOI: 10.1039/c7sc00601b
   * J. Koopman and S. Grimme, ACS Omega 2019, 4, 12, 15120-15133.
     DOI: 10.1021/acsomega.9b02011
   
   for metadynamics refer to:
   * S. Grimme, J. Chem. Theory Comput., 2019, 155, 2847-2862
     DOI: 10.1021/acs.jctc.9b00143
   
   for SPH calculations refer to:
   * S. Spicher and S. Grimme, J. Chem. Theory Comput., 2021, 17, 1701-1714
     DOI: 10.1021/acs.jctc.0c01306
   
   for ONIOM refer to:
   * C. Plett, A. Katbashev, S. Ehlert, S. Grimme, M. Bursch,
     Phys. Chem. Chem. Phys., 2023, 25, 17860-17868. DOI: 10.1039/D3CP02178E
   
   for DIPRO refer to:
   * J. Kohn, N. Gildemeister, S. Grimme, D. Fazzi, A. Hansen,
     J. Chem. Phys., 2023, just accepted.
   
   for PTB refer to:
   * S. Grimme, M. Mueller, A. Hansen, J. Chem. Phys., 2023, 158, 124111.
     DOI: 10.1063/5.0137838
   
   with help from (in alphabetical order)
   P. Atkinson, C. Bannwarth, F. Bohle, G. Brandenburg, E. Caldeweyher
   M. Checinski, S. Dohm, S. Ehlert, S. Ehrlich, I. Gerasimov, C. Hölzer
   A. Katbashev, J. Kohn, J. Koopman, C. Lavigne, S. Lehtola, F. März, M. Müller,
   F. Musil, H. Neugebauer, J. Pisarek, C. Plett, P. Pracht, F. Pultar,
   J. Seibert, P. Shushkov, S. Spicher, M. Stahn, M. Steiner, T. Strunk,
   J. Stückrath, T. Rose, and J. Unsleber
   
 * started run on 2025/01/10 at 14:26:52.613     
   ID    Z sym.   atoms
    1    8 O      1, 7
    2    1 H      2, 3, 6, 9, 11, 12, 15
    3    6 C      4, 8, 13
    4    7 N      5, 10, 14

           -------------------------------------------------
          |                Calculation Setup                |
           -------------------------------------------------

          program call               : /home/adpal/xtb-dist/bin/xtb ./results/p_{0,64}_coordinatesxTB.xyz --ohess --uhf 1 --parallel 8
          coordinate file            : ./results/p_{0,64}_coordinatesxTB.xyz
          omp threads                :                     8


           -------------------------------------------------
          |                 G F N 2 - x T B                 |
           -------------------------------------------------

        Reference                      10.1021/acs.jctc.8b01176
      * Hamiltonian:
        H0-scaling (s, p, d)           1.850000    2.230000    2.230000
        zeta-weighting                 0.500000
      * Dispersion:
        s8                             2.700000
        a1                             0.520000
        a2                             5.000000
        s9                             5.000000
      * Repulsion:
        kExp                           1.500000    1.000000
        rExp                           1.000000
      * Coulomb:
        alpha                          2.000000
        third order                    shell-resolved
        anisotropic                    true
        a3                             3.000000
        a5                             4.000000
        cn-shift                       1.200000
        cn-exp                         4.000000
        max-rad                        5.000000

q/qsh data taken from xtbrestart
CAMM data taken from xtbrestart

          ...................................................
          :                      SETUP                      :
          :.................................................:
          :  # basis functions                  39          :
          :  # atomic orbitals                  39          :
          :  # shells                           23          :
          :  # electrons                        46          :
          :  max. iterations                   250          :
          :  Hamiltonian                  GFN2-xTB          :
          :  restarted?                       true          :
          :  GBSA solvation                  false          :
          :  PC potential                    false          :
          :  electronic temp.          300.0000000     K    :
          :  accuracy                    1.0000000          :
          :  -> integral cutoff          0.2500000E+02      :
          :  -> integral neglect         0.1000000E-07      :
          :  -> SCF convergence          0.1000000E-05 Eh   :
          :  -> wf. convergence          0.1000000E-03 e    :
          :  Broyden damping             0.4000000          :
          :  net charge                          0          :
          :  unpaired electrons                  1          :
          ...................................................

 iter      E             dE          RMSdq      gap      omega  full diag
   1    -27.1334164 -0.271334E+02  0.144E-06    4.30       0.0  T
   2    -27.1334164 -0.177636E-13  0.915E-07    4.30   28224.9  T
   3    -27.1334164 -0.106581E-13  0.497E-07    4.30   51981.3  T

   *** convergence criteria satisfied after 3 iterations ***

         #    Occupation            Energy/Eh            Energy/eV
      -------------------------------------------------------------
         1        2.0000           -0.7366821             -20.0461
       ...           ...                  ...                  ...
        17        2.0000           -0.4934547             -13.4276
        18        2.0000           -0.4771004             -12.9826
        19        2.0000           -0.4514128             -12.2836
        20        2.0000           -0.4331613             -11.7869
        21        2.0000           -0.4074098             -11.0862
        22        2.0000           -0.3970160             -10.8034
        23        2.0000           -0.3847221             -10.4688 (HOMO)
        24                         -0.2267453              -6.1701 (LUMO)
        25                         -0.2225763              -6.0566
        26                          0.0108098               0.2942
        27                          0.0149427               0.4066
        28                          0.0718086               1.9540
       ...                                ...                  ...
        39                          0.5838448              15.8872
      -------------------------------------------------------------
                  HL-Gap            0.1579768 Eh            4.2988 eV
             Fermi-level           -0.3057337 Eh           -8.3194 eV

 SCC (total)                   0 d,  0 h,  0 min,  0.012 sec
 SCC setup                      ...        0 min,  0.000 sec (  2.049%)
 Dispersion                     ...        0 min,  0.000 sec (  1.270%)
 classical contributions        ...        0 min,  0.000 sec (  0.403%)
 integral evaluation            ...        0 min,  0.001 sec (  7.300%)
 iterations                     ...        0 min,  0.009 sec ( 74.926%)
 molecular gradient             ...        0 min,  0.001 sec ( 12.220%)
 printout                       ...        0 min,  0.000 sec (  1.622%)

         :::::::::::::::::::::::::::::::::::::::::::::::::::::
         ::                     SUMMARY                     ::
         :::::::::::::::::::::::::::::::::::::::::::::::::::::
         :: total energy             -26.856906612250 Eh    ::
         :: gradient norm              0.000034205316 Eh/a0 ::
         :: HOMO-LUMO gap              4.298766648621 eV    ::
         ::.................................................::
         :: SCC energy               -27.133377252944 Eh    ::
         :: -> isotropic ES            0.074108226465 Eh    ::
         :: -> anisotropic ES         -0.002313906375 Eh    ::
         :: -> anisotropic XC          0.013061250649 Eh    ::
         :: -> dispersion             -0.010035313113 Eh    ::
         :: repulsion energy           0.276470640694 Eh    ::
         :: add. restraining           0.000000000000 Eh    ::
         :: total charge              -0.000000000000 e     ::
         :::::::::::::::::::::::::::::::::::::::::::::::::::::

      ----------------------------------------------------------- 
     |                   =====================                   |
     |                        A N C O P T                        |
     |                   =====================                   |
     |               Approximate Normal Coordinate               |
     |                Rational Function Optimizer                |
      ----------------------------------------------------------- 
      ----------------------------------------------------------- 
     |                   =====================                   |
     |                        A N C O P T                        |
     |                   =====================                   |
     |               Approximate Normal Coordinate               |
     |                Rational Function Optimizer                |
      ----------------------------------------------------------- 

          ...................................................
          :                      SETUP                      :
          :.................................................:
          :   optimization level            normal          :
          :   max. optcycles                   200          :
          :   ANC micro-cycles                  20          :
          :   degrees of freedom                39          :
          :.................................................:
          :   RF solver                   davidson          :
          :   write xtbopt.log                true          :
          :   linear?                        false          :
          :   energy convergence         0.5000000E-05 Eh   :
          :   grad. convergence          0.1000000E-02 Eh/α :
          :   maxmium RF displ.          1.0000000          :
          :   Hlow (freq-cutoff)         0.1000000E-01      :
          :   Hmax (freq-cutoff)         5.0000000          :
          :   S6 in model hess.         20.0000000          :
          ...................................................

generating ANC from exact Hessian ...
Using Lindh-Hessian (1995)
 Shifting diagonal of input Hessian by   7.943264798232685E-003
 Lowest  eigenvalues of input Hessian
    0.000000    0.000000    0.000000    0.000000    0.000000    0.000000
    0.010000    0.011481    0.013582    0.019246    0.021288    0.025319
    0.038719    0.041439    0.054656    0.061327    0.083428    0.095742
 Highest eigenvalues
    1.597156    1.660365    1.800424    1.934730    2.212431    2.340851
 

........................................................................
.............................. CYCLE    1 ..............................
........................................................................

 iter      E             dE          RMSdq      gap      omega  full diag
   1    -27.1334164 -0.271334E+02  0.163E-07    4.30       0.0  T
   2    -27.1334164  0.319744E-13  0.912E-08    4.30  100000.0  T
   3    -27.1334164  0.355271E-14  0.624E-08    4.30  100000.0  T
     SCC iter.                  ...        0 min,  0.001 sec
     gradient                   ...        0 min,  0.001 sec
 * total energy  :   -26.8569066 Eh     change        0.1421085E-13 Eh
   gradient norm :     0.0000342 Eh/α   predicted     0.0000000E+00 (-100.00%)
   displ. norm   :     0.0009453 α      lambda       -0.4456306E-08
   maximum displ.:     0.0007102 α      in ANC's #1, #2, #3, ...

   *** GEOMETRY OPTIMIZATION CONVERGED AFTER 1 ITERATIONS ***

------------------------------------------------------------------------
 total energy gain   :         0.0000000 Eh        0.0000 kcal/mol
 total RMSD          :         0.0000001 a0        0.0000 Å
 total power (kW/mol):         0.0000000 (step)    0.0000 (real)
------------------------------------------------------------------------

 ANCopt (total)                0 d,  0 h,  0 min,  0.008 sec
 optimizer setup                ...        0 min,  0.000 sec (  1.667%)
 model hessian                  ...        0 min,  0.003 sec ( 43.620%)
 ANC generation                 ...        0 min,  0.000 sec (  3.557%)
 coordinate transformation      ...        0 min,  0.000 sec (  0.173%)
 single point calculation       ...        0 min,  0.003 sec ( 44.635%)
 optimization log               ...        0 min,  0.000 sec (  2.920%)
 hessian update                 ...        0 min,  0.000 sec (  0.025%)
 rational function              ...        0 min,  0.000 sec (  2.010%)

================
 final structure:
================
15
 xtb: 6.7.1 (edcfbbe)
O            1.42164803829845       -0.67294782283419        0.81782749632557
H            3.50399556632286       -1.93242687290274       -0.78326206563637
H            0.01506718086069       -3.04588044273329        2.28524731078797
C            1.10955291689140       -1.91440445924892        1.19771350203770
N            0.22993351936937       -2.07701129059237        2.07841462577869
H            1.66721384791771       -2.70798411904892        0.67541706848414
O            2.76361606319394       -1.33808762372663       -0.96553029970707
C            2.65148731669383       -0.47541219408444        0.10372912662461
H            2.54379778620899        0.55312335205005       -0.28181275956093
N            2.94253654981649        0.57552180433184        2.77146044179417
H            3.07555071195065        0.79764703914325        3.74173856454475
H            2.00630873606982        0.63050552692164        2.39811972927774
C            3.86937065761697       -0.12917028949726        2.09944753020225
N            3.80457301406840       -0.61340900727333        0.92631020075293
H            4.81084809472013       -0.28215360050471        2.61622952829199
 
 Bond Distances (Angstroems)
 ---------------------------
O1-C4=1.3353         O1-C8=1.4358         H2-O7=0.9668         H3-N5=1.0137         C4-O1=1.3353         C4-N5=1.2553         
C4-H6=1.1016         N5-H3=1.0137         N5-C4=1.2553         H6-C4=1.1016         O7-H2=0.9668         O7-C8=1.3784         
C8-O1=1.4358         C8-O7=1.3784         C8-H9=1.1037         C8-N14=1.4231        H9-C8=1.1037         N10-H11=1.0042       
N10-H12=1.0094       N10-C13=1.3443       H11-N10=1.0042       H12-N10=1.0094       C13-N10=1.3443       C13-N14=1.2708       
C13-H15=1.0848       N14-C8=1.4231        N14-C13=1.2708       H15-C13=1.0848       
 C  H  Rav=1.0967 sigma=0.0084  Rmin=1.0848  Rmax=1.1037     3
 N  H  Rav=1.0091 sigma=0.0039  Rmin=1.0042  Rmax=1.0137     3
 N  C  Rav=1.3234 sigma=0.0667  Rmin=1.2553  Rmax=1.4231     4
 O  H  Rav=0.9668 sigma=0.0000  Rmin=0.9668  Rmax=0.9668     1
 O  C  Rav=1.3832 sigma=0.0412  Rmin=1.3353  Rmax=1.4358     3
 
 selected bond angles (degree)
 --------------------
C8-O1-C4=118.01                N5-C4-O1=118.93                H6-C4-O1=114.62                H6-C4-N5=126.44                
C4-N5-H3=114.55                C8-O7-H2=107.51                O7-C8-O1=111.68                H9-C8-O1=102.61                
H9-C8-O7=108.67                N14-C8-O1=113.15               N14-C8-O7=108.77               N14-C8-H9=111.80               
H12-N10-H11=117.91             C13-N10-H11=120.51             C13-N10-H12=118.89             
 
 selected dihedral angles (degree)
 ---------------------------------
N5-C4-O1-C8=163.22            H6-C4-O1-C8=342.61            H3-N5-C4-O1=177.30            H3-N5-C4-H6=357.99            
O7-C8-O1-C4= 51.06            H9-C8-O1-C4=167.29            N14-C8-O1-C4=287.93           O1-C8-O7-H2=245.57            
H9-C8-O7-H2=133.09            N14-C8-O7-H2= 11.16           
           -------------------------------------------------
          |                Final Singlepoint                |
           -------------------------------------------------

          ...................................................
          :                      SETUP                      :
          :.................................................:
          :  # basis functions                  39          :
          :  # atomic orbitals                  39          :
          :  # shells                           23          :
          :  # electrons                        46          :
          :  max. iterations                   250          :
          :  Hamiltonian                  GFN2-xTB          :
          :  restarted?                      false          :
          :  GBSA solvation                  false          :
          :  PC potential                    false          :
          :  electronic temp.          300.0000000     K    :
          :  accuracy                    1.0000000          :
          :  -> integral cutoff          0.2500000E+02      :
          :  -> integral neglect         0.1000000E-07      :
          :  -> SCF convergence          0.1000000E-05 Eh   :
          :  -> wf. convergence          0.1000000E-03 e    :
          :  Broyden damping             0.4000000          :
          :  net charge                          0          :
          :  unpaired electrons                  1          :
          ...................................................

 iter      E             dE          RMSdq      gap      omega  full diag
   1    -27.1334164 -0.271334E+02  0.130E-08    4.30       0.0  T
   2    -27.1334164 -0.532907E-13  0.846E-09    4.30  100000.0  T
   3    -27.1334164  0.177636E-13  0.499E-09    4.30  100000.0  T

   *** convergence criteria satisfied after 3 iterations ***

         #    Occupation            Energy/Eh            Energy/eV
      -------------------------------------------------------------
         1        2.0000           -0.7366821             -20.0461
       ...           ...                  ...                  ...
        17        2.0000           -0.4934547             -13.4276
        18        2.0000           -0.4771004             -12.9826
        19        2.0000           -0.4514128             -12.2836
        20        2.0000           -0.4331613             -11.7869
        21        2.0000           -0.4074098             -11.0862
        22        2.0000           -0.3970160             -10.8034
        23        2.0000           -0.3847221             -10.4688 (HOMO)
        24                         -0.2267453              -6.1701 (LUMO)
        25                         -0.2225763              -6.0566
        26                          0.0108098               0.2942
        27                          0.0149427               0.4066
        28                          0.0718086               1.9540
       ...                                ...                  ...
        39                          0.5838448              15.8872
      -------------------------------------------------------------
                  HL-Gap            0.1579768 Eh            4.2988 eV
             Fermi-level           -0.3057337 Eh           -8.3194 eV

 SCC (total)                   0 d,  0 h,  0 min,  0.003 sec
 SCC setup                      ...        0 min,  0.000 sec (  3.535%)
 Dispersion                     ...        0 min,  0.000 sec (  1.443%)
 classical contributions        ...        0 min,  0.000 sec (  0.364%)
 integral evaluation            ...        0 min,  0.001 sec ( 15.785%)
 iterations                     ...        0 min,  0.001 sec ( 35.647%)
 molecular gradient             ...        0 min,  0.001 sec ( 38.047%)
 printout                       ...        0 min,  0.000 sec (  4.464%)

         :::::::::::::::::::::::::::::::::::::::::::::::::::::
         ::                     SUMMARY                     ::
         :::::::::::::::::::::::::::::::::::::::::::::::::::::
         :: total energy             -26.856906612250 Eh    ::
         :: gradient norm              0.000034202356 Eh/a0 ::
         :: HOMO-LUMO gap              4.298766655037 eV    ::
         ::.................................................::
         :: SCC energy               -27.133377252944 Eh    ::
         :: -> isotropic ES            0.074108231458 Eh    ::
         :: -> anisotropic ES         -0.002313906034 Eh    ::
         :: -> anisotropic XC          0.013061250211 Eh    ::
         :: -> dispersion             -0.010035313132 Eh    ::
         :: repulsion energy           0.276470640694 Eh    ::
         :: add. restraining           0.000000000000 Eh    ::
         :: total charge              -0.000000000000 e     ::
         :::::::::::::::::::::::::::::::::::::::::::::::::::::

           ------------------------------------------------- 
          |                Numerical Hessian                |
           ------------------------------------------------- 
step length          :   0.00500
SCC accuracy         :   0.30000
Hessian scale factor :   1.00000
frozen atoms in %    :   0.00000    0
RMS gradient         :   0.00003
estimated CPU  time      0.04 min
estimated wall time      0.01 min

writing file <hessian>.

 projected vibrational frequencies (cm⁻¹)
eigval :       -0.00    -0.00    -0.00     0.00     0.00     0.00
eigval :       49.98    75.02   113.91   203.61   224.65   273.59
eigval :      309.40   368.11   407.89   456.56   510.68   581.69
eigval :      677.45   748.17   784.47   877.38   932.50   961.18
eigval :      973.83  1043.11  1062.92  1130.64  1198.85  1234.46
eigval :     1258.74  1300.01  1321.59  1331.80  1366.83  1462.50
eigval :     1716.58  1736.87  2813.60  2851.64  3025.26  3396.53
eigval :     3440.49  3496.64  3528.99
           -------------------------------------------------
          |                Property Printout                |
           -------------------------------------------------

    * Orbital Energies and Occupations

         #    Occupation            Energy/Eh            Energy/eV
      -------------------------------------------------------------
         1        2.0000           -0.7366821             -20.0461
       ...           ...                  ...                  ...
        11        2.0000           -0.5720735             -15.5669
        12        2.0000           -0.5514406             -15.0055
        13        2.0000           -0.5452264             -14.8364
        14        2.0000           -0.5222135             -14.2102
        15        2.0000           -0.5113857             -13.9155
        16        2.0000           -0.5061193             -13.7722
        17        2.0000           -0.4934547             -13.4276
        18        2.0000           -0.4771004             -12.9826
        19        2.0000           -0.4514128             -12.2836
        20        2.0000           -0.4331613             -11.7869
        21        2.0000           -0.4074098             -11.0862
        22        2.0000           -0.3970160             -10.8034
        23        2.0000           -0.3847221             -10.4688 (HOMO)
        24                         -0.2267453              -6.1701 (LUMO)
        25                         -0.2225763              -6.0566
        26                          0.0108098               0.2942
        27                          0.0149427               0.4066
        28                          0.0718086               1.9540
        29                          0.0800051               2.1770
        30                          0.1258478               3.4245
        31                          0.1356881               3.6923
        32                          0.1498057               4.0764
        33                          0.1755235               4.7762
        34                          0.2200517               5.9879
       ...                                ...                  ...
        39                          0.5838448              15.8872
      -------------------------------------------------------------
                  HL-Gap            0.1579767 Eh            4.2988 eV
             Fermi-level           -0.3057337 Eh           -8.3194 eV

     #   Z          covCN         q      C6AA      α(0)
     1   8 O        1.705    -0.284    18.722     5.842
     2   1 H        0.805     0.325     0.650     1.267
     3   1 H        0.860     0.154     1.377     1.838
     4   6 C        2.710     0.237    23.036     7.856
     5   7 N        1.774    -0.346    29.811     8.085
     6   1 H        0.923    -0.002     3.093     2.750
     7   8 O        1.659    -0.434    21.528     6.264
     8   6 C        3.580     0.323    16.372     5.875
     9   1 H        0.923     0.038     2.474     2.460
    10   7 N        2.635    -0.250    26.499     7.645
    11   1 H        0.860     0.182     1.200     1.716
    12   1 H        0.860     0.207     1.072     1.622
    13   6 C        2.772     0.146    24.801     8.156
    14   7 N        1.825    -0.349    29.915     8.105
    15   1 H        0.925     0.053     2.285     2.364

 Mol. C6AA /au·bohr⁶  :       2276.443058
 Mol. C8AA /au·bohr⁸  :      48749.084658
 Mol. α(0) /au        :         71.845104


Wiberg/Mayer (AO) data.
largest (>0.10) Wiberg bond orders for each atom

 ---------------------------------------------------------------------------
     #   Z sym  total        # sym  WBO       # sym  WBO       # sym  WBO
 ---------------------------------------------------------------------------
     1   8 O    2.283 --     4 C    1.117     8 C    0.895     5 N    0.134
     2   1 H    0.894 --     7 O    0.871
     3   1 H    0.976 --     5 N    0.950
     4   6 C    3.931 --     5 N    1.851     1 O    1.117     6 H    0.931
     5   7 N    3.006 --     4 C    1.851     3 H    0.950     1 O    0.134
     6   1 H    1.000 --     4 C    0.931
     7   8 O    1.999 --     8 C    1.020     2 H    0.871
     8   6 C    3.926 --    14 N    1.022     7 O    1.020     9 H    0.936
                             1 O    0.895
     9   1 H    0.999 --     8 C    0.936
    10   7 N    3.393 --    13 C    1.283    11 H    0.950    12 H    0.927
                            14 N    0.205
    11   1 H    0.967 --    10 N    0.950
    12   1 H    0.957 --    10 N    0.927
    13   6 C    3.969 --    14 N    1.692    10 N    1.283    15 H    0.950
    14   7 N    3.025 --    13 C    1.692     8 C    1.022    10 N    0.205
    15   1 H    0.997 --    13 C    0.950
 ---------------------------------------------------------------------------

Topologies differ in total number of bonds
Writing topology from bond orders to xtbtopo.mol

molecular dipole:
                 x           y           z       tot (Debye)
 q only:        0.766       0.241       0.905
   full:        0.836       0.007       1.034       3.381
molecular quadrupole (traceless):
                xx          xy          yy          xz          yz          zz
 q only:        0.597      -0.301      -1.966       9.833       2.836       1.369
  q+dip:       -2.595      -1.824       1.651      13.648       2.218       0.944
   full:       -2.608      -1.273       1.686      13.932       1.954       0.922

           -------------------------------------------------
          |                Geometry Summary                 |
           -------------------------------------------------

      molecular mass/u    :      117.1067124
   center of mass at/Å    :        2.3405716      -0.8376031       1.1111646
  moments of inertia/u·Å² :        0.2029011E+03   0.2571585E+03   0.4059892E+03
rotational constants/cm⁻¹ :        0.8308299E-01   0.6555346E-01   0.4152236E-01

 * 13 selected distances

     #   Z          #   Z                                           value/Å
     1   8 O        4   6 C                                       1.3352646
     4   6 C        5   7 N                                       1.2553111
     4   6 C        6   1 H                                       1.1016116
     2   1 H        7   8 O                                       0.9667589 (min)
     1   8 O        8   6 C                                       1.4357792 (max)
     7   8 O        8   6 C                                       1.3784404
     8   6 C        9   1 H                                       1.1036871
    10   7 N       11   1 H                                       1.0042272
    10   7 N       12   1 H                                       1.0094202
    10   7 N       13   6 C                                       1.3443266
     8   6 C       14   7 N                                       1.4231267
    13   6 C       14   7 N                                       1.2708019
    13   6 C       15   1 H                                       1.0848260

 * 5 distinct bonds (by element types)

   Z      Z             #   av. dist./Å        max./Å        min./Å
   1 H    6 C           3     1.0967082     1.1036871     1.0848260
   1 H    7 N           2     1.0068237     1.0094202     1.0042272
   6 C    7 N           4     1.3233916     1.4231267     1.2553111
   1 H    8 O           1     0.9667589     0.9667589     0.9667589
   6 C    8 O           3     1.3831614     1.4357792     1.3352646

           -------------------------------------------------
          |               Frequency Printout                |
           -------------------------------------------------
 projected vibrational frequencies (cm⁻¹)
eigval :       -0.00    -0.00    -0.00     0.00     0.00     0.00
eigval :       49.98    75.02   113.91   203.61   224.65   273.59
eigval :      309.40   368.11   407.89   456.56   510.68   581.69
eigval :      677.45   748.17   784.47   877.38   932.50   961.18
eigval :      973.83  1043.11  1062.92  1130.64  1198.85  1234.46
eigval :     1258.74  1300.01  1321.59  1331.80  1366.83  1462.50
eigval :     1716.58  1736.87  2813.60  2851.64  3025.26  3396.53
eigval :     3440.49  3496.64  3528.99
 reduced masses (amu)
   1: 12.46   2: 12.96   3: 12.41   4: 13.31   5: 13.18   6: 12.72   7: 12.45   8: 11.70
   9:  8.87  10: 12.42  11: 13.15  12:  2.35  13:  8.14  14: 12.37  15:  6.21  16: 10.35
  17:  9.87  18:  6.37  19: 10.10  20: 10.90  21:  5.94  22: 11.00  23:  5.39  24:  5.72
  25:  8.52  26:  7.65  27:  7.93  28: 10.23  29:  3.63  30:  5.05  31:  8.63  32:  4.31
  33:  4.68  34:  4.45  35:  4.22  36:  4.20  37: 12.47  38: 12.44  39:  1.71  40:  1.70
  41:  1.77  42:  1.88  43:  1.54  44:  1.87  45:  2.09
 IR intensities (km·mol⁻¹)
   1:  0.25   2:  1.03   3:  0.48   4:  0.50   5:  0.42   6:  0.89   7:  5.33   8:  1.98
   9: 40.32  10: 27.68  11: 12.14  12: 70.63  13: 46.82  14:  2.72  15:172.77  16: 20.67
  17: 56.34  18: 46.71  19: 14.98  20: 44.95  21: 32.42  22: 23.11  23: 42.71  24: 40.64
  25:128.85  26: 87.89  27:335.52  28: 87.01  29: 25.31  30:178.81  31: 71.83  32:116.57
  33: 80.76  34: 34.78  35: 48.47  36: 41.30  37:242.41  38:607.74  39:109.84  40: 51.23
  41: 35.63  42:  4.41  43: 27.74  44: 40.56  45: 18.55
 Raman intensities (Ä⁴*amu⁻¹)
   1:  0.00   2:  0.00   3:  0.00   4:  0.00   5:  0.00   6:  0.00   7:  0.00   8:  0.00
   9:  0.00  10:  0.00  11:  0.00  12:  0.00  13:  0.00  14:  0.00  15:  0.00  16:  0.00
  17:  0.00  18:  0.00  19:  0.00  20:  0.00  21:  0.00  22:  0.00  23:  0.00  24:  0.00
  25:  0.00  26:  0.00  27:  0.00  28:  0.00  29:  0.00  30:  0.00  31:  0.00  32:  0.00
  33:  0.00  34:  0.00  35:  0.00  36:  0.00  37:  0.00  38:  0.00  39:  0.00  40:  0.00
  41:  0.00  42:  0.00  43:  0.00  44:  0.00  45:  0.00
 output can be read by thermo (or use thermo option).
 writing <g98.out> molden fake output.
 recommended (thermochemical) frequency scaling factor: 1.0
           -------------------------------------------------
          |             Thermodynamic Functions             |
           -------------------------------------------------

Molecule has no symmetry elements
It seems to be the C1 point group
c1  symmetry found (for desy threshold:  0.10E+00) used in thermo

          ...................................................
          :                      SETUP                      :
          :.................................................:
          :  # frequencies                          39      :
          :  # imaginary freq.                       0      :
          :  linear?                             false      :
          :  only rotor calc.                    false      :
          :  symmetry                               c1      :
          :  rotational number                       1      :
          :  scaling factor                  1.0000000      :
          :  rotor cutoff                   50.0000000 cm⁻¹ :
          :  imag. cutoff                  -20.0000000 cm⁻¹ :
          :.................................................:

    mode    ω/cm⁻¹     T·S(HO)/kcal·mol⁻¹    T·S(FR)/kcal·mol⁻¹   T·S(vib)
   ------------------------------------------------------------------------
       1     49.98    -1.43656 ( 49.96%)    -1.05633 ( 50.04%)    -1.24628
       2     75.02    -1.19771 ( 83.52%)    -0.93613 ( 16.48%)    -1.15460
       3    113.91    -0.95445 ( 96.42%)    -0.81249 (  3.58%)    -0.94937
       4    203.61    -0.62618 ( 99.64%)    -0.64048 (  0.36%)    -0.62623
       5    224.65    -0.57283 ( 99.76%)    -0.61136 (  0.24%)    -0.57292
       6    273.59    -0.46912 ( 99.89%)    -0.55299 (  0.11%)    -0.46921
   ------------------------------------------------------------------------

   temp. (K)  partition function   enthalpy   heat capacity  entropy
                                   cal/mol     cal/K/mol   cal/K/mol   J/K/mol
 298.15  VIB   334.                 3904.549     25.096     23.844
         ROT  0.352E+06              888.752      2.981     28.359
         INT  0.117E+09             4793.301     28.077     52.203
         TR   0.123E+28             1481.254      4.968     40.170
         TOT                        6274.5548    33.0447    92.3731   386.4892

       T/K    H(0)-H(T)+PV         H(T)/Eh          T*S/Eh         G(T)/Eh
   ------------------------------------------------------------------------
    298.15    0.999914E-02    0.122195E+00    0.438895E-01    0.783052E-01
   ------------------------------------------------------------------------

         :::::::::::::::::::::::::::::::::::::::::::::::::::::
         ::                  THERMODYNAMIC                  ::
         :::::::::::::::::::::::::::::::::::::::::::::::::::::
         :: total free energy         -26.778601449551 Eh   ::
         ::.................................................::
         :: total energy              -26.856906612250 Eh   ::
         :: zero point energy           0.112195478490 Eh   ::
         :: G(RRHO) w/o ZPVE           -0.033890315791 Eh   ::
         :: G(RRHO) contrib.            0.078305162699 Eh   ::
         :::::::::::::::::::::::::::::::::::::::::::::::::::::

optimized geometry written to: xtbopt.xyz


           -------------------------------------------------
          | TOTAL ENERGY              -26.856906612250 Eh   |
          | TOTAL ENTHALPY            -26.734711994179 Eh   |
          | TOTAL FREE ENERGY         -26.778601449551 Eh   |
          | GRADIENT NORM               0.000034202791 Eh/α |
          | HOMO-LUMO GAP               4.298766003323 eV   |
           -------------------------------------------------

------------------------------------------------------------------------
 * finished run on 2025/01/10 at 14:26:52.791     
------------------------------------------------------------------------
 total:
 * wall-time:     0 d,  0 h,  0 min,  0.177 sec
 *  cpu-time:     0 d,  0 h,  0 min,  1.364 sec
 * ratio c/w:     7.720 speedup
 SCF:
 * wall-time:     0 d,  0 h,  0 min,  0.012 sec
 *  cpu-time:     0 d,  0 h,  0 min,  0.078 sec
 * ratio c/w:     6.469 speedup
 ANC optimizer:
 * wall-time:     0 d,  0 h,  0 min,  0.012 sec
 *  cpu-time:     0 d,  0 h,  0 min,  0.095 sec
 * ratio c/w:     7.988 speedup
 analytical hessian:
 * wall-time:     0 d,  0 h,  0 min,  0.136 sec
 *  cpu-time:     0 d,  0 h,  0 min,  1.086 sec
 * ratio c/w:     7.998 speedup

normal termination of xtb
