      -----------------------------------------------------------      
     |                   =====================                   |     
     |                           x T B                           |     
     |                   =====================                   |     
     |                         S. Grimme                         |     
     |          Mulliken Center for Theoretical Chemistry        |     
     |                    University of Bonn                     |     
      -----------------------------------------------------------      

   * xtb version 6.7.1 (edcfbbe) compiled by 'albert@albert-system' on 2024-07-22

   xtb is free software: you can redistribute it and/or modify it under
   the terms of the GNU Lesser General Public License as published by
   the Free Software Foundation, either version 3 of the License, or
   (at your option) any later version.
   
   xtb is distributed in the hope that it will be useful,
   but WITHOUT ANY WARRANTY; without even the implied warranty of
   MERCHANTABILITY or FITNESS FOR A PARTICULAR PURPOSE.  See the
   GNU Lesser General Public License for more details.
   
   Cite this work as:
   * C. Bannwarth, E. Caldeweyher, S. Ehlert, A. Hansen, P. Pracht,
     J. Seibert, S. Spicher, S. Grimme, WIREs Comput. Mol. Sci., 2020, 11,
     e01493. DOI: 10.1002/wcms.1493
   
   for GFN2-xTB:
   * C. Bannwarth, S. Ehlert and S. Grimme., J. Chem. Theory Comput., 2019,
     15, 1652-1671. DOI: 10.1021/acs.jctc.8b01176
   for GFN1-xTB:
   * S. Grimme, C. Bannwarth, P. Shushkov, J. Chem. Theory Comput., 2017,
     13, 1989-2009. DOI: 10.1021/acs.jctc.7b00118
   for GFN0-xTB:
   * P. Pracht, E. Caldeweyher, S. Ehlert, S. Grimme, ChemRxiv, 2019, preprint.
     DOI: 10.26434/chemrxiv.8326202.v1
   for GFN-FF:
   * S. Spicher and S. Grimme, Angew. Chem. Int. Ed., 2020, 59, 15665-15673.
     DOI: 10.1002/anie.202004239
   
   for ALPB and GBSA implicit solvation:
   * S. Ehlert, M. Stahn, S. Spicher, S. Grimme, J. Chem. Theory Comput.,
     2021, 17, 4250-4261. DOI: 10.1021/acs.jctc.1c00471
   
   for ddCOSMO and CPCM-X implicit solvation:
   * M. Stahn, S. Ehlert, S. Grimme, J. Phys. Chem. A,
     2023, XX, XXXX-XXXX. DOI: 10.1021/acs.jpca.3c04382
   
   for DFT-D4:
   * E. Caldeweyher, C. Bannwarth and S. Grimme, J. Chem. Phys., 2017,
     147, 034112. DOI: 10.1063/1.4993215
   * E. Caldeweyher, S. Ehlert, A. Hansen, H. Neugebauer, S. Spicher,
     C. Bannwarth and S. Grimme, J. Chem. Phys., 2019, 150, 154122.
     DOI: 10.1063/1.5090222
   * E. Caldeweyher, J.-M. Mewes, S. Ehlert and S. Grimme, Phys. Chem. Chem. Phys.
     2020, 22, 8499-8512. DOI: 10.1039/D0CP00502A
   
   for sTDA-xTB:
   * S. Grimme and C. Bannwarth, J. Chem. Phys., 2016, 145, 054103.
     DOI: 10.1063/1.4959605
   
   in the mass-spec context:
   * V. Asgeirsson, C. Bauer and S. Grimme, Chem. Sci., 2017, 8, 4879.
     DOI: 10.1039/c7sc00601b
   * J. Koopman and S. Grimme, ACS Omega 2019, 4, 12, 15120-15133.
     DOI: 10.1021/acsomega.9b02011
   
   for metadynamics refer to:
   * S. Grimme, J. Chem. Theory Comput., 2019, 155, 2847-2862
     DOI: 10.1021/acs.jctc.9b00143
   
   for SPH calculations refer to:
   * S. Spicher and S. Grimme, J. Chem. Theory Comput., 2021, 17, 1701-1714
     DOI: 10.1021/acs.jctc.0c01306
   
   for ONIOM refer to:
   * C. Plett, A. Katbashev, S. Ehlert, S. Grimme, M. Bursch,
     Phys. Chem. Chem. Phys., 2023, 25, 17860-17868. DOI: 10.1039/D3CP02178E
   
   for DIPRO refer to:
   * J. Kohn, N. Gildemeister, S. Grimme, D. Fazzi, A. Hansen,
     J. Chem. Phys., 2023, just accepted.
   
   for PTB refer to:
   * S. Grimme, M. Mueller, A. Hansen, J. Chem. Phys., 2023, 158, 124111.
     DOI: 10.1063/5.0137838
   
   with help from (in alphabetical order)
   P. Atkinson, C. Bannwarth, F. Bohle, G. Brandenburg, E. Caldeweyher
   M. Checinski, S. Dohm, S. Ehlert, S. Ehrlich, I. Gerasimov, C. Hölzer
   A. Katbashev, J. Kohn, J. Koopman, C. Lavigne, S. Lehtola, F. März, M. Müller,
   F. Musil, H. Neugebauer, J. Pisarek, C. Plett, P. Pracht, F. Pultar,
   J. Seibert, P. Shushkov, S. Spicher, M. Stahn, M. Steiner, T. Strunk,
   J. Stückrath, T. Rose, and J. Unsleber
   
 * started run on 2025/01/10 at 14:26:18.650     
   ID    Z sym.   atoms
    1    8 O      1, 7, 13
    2    1 H      2, 3, 6, 8, 9, 12, 14, 15, 18
    3    6 C      4, 10, 16
    4    7 N      5, 11, 17

           -------------------------------------------------
          |                Calculation Setup                |
           -------------------------------------------------

          program call               : /home/adpal/xtb-dist/bin/xtb ./results/p_{0,50}_coordinatesxTB.xyz --ohess --uhf 1 --parallel 8
          coordinate file            : ./results/p_{0,50}_coordinatesxTB.xyz
          omp threads                :                     8


           -------------------------------------------------
          |                 G F N 2 - x T B                 |
           -------------------------------------------------

        Reference                      10.1021/acs.jctc.8b01176
      * Hamiltonian:
        H0-scaling (s, p, d)           1.850000    2.230000    2.230000
        zeta-weighting                 0.500000
      * Dispersion:
        s8                             2.700000
        a1                             0.520000
        a2                             5.000000
        s9                             5.000000
      * Repulsion:
        kExp                           1.500000    1.000000
        rExp                           1.000000
      * Coulomb:
        alpha                          2.000000
        third order                    shell-resolved
        anisotropic                    true
        a3                             3.000000
        a5                             4.000000
        cn-shift                       1.200000
        cn-exp                         4.000000
        max-rad                        5.000000

q/qsh data taken from xtbrestart
CAMM data taken from xtbrestart

          ...................................................
          :                      SETUP                      :
          :.................................................:
          :  # basis functions                  45          :
          :  # atomic orbitals                  45          :
          :  # shells                           27          :
          :  # electrons                        54          :
          :  max. iterations                   250          :
          :  Hamiltonian                  GFN2-xTB          :
          :  restarted?                       true          :
          :  GBSA solvation                  false          :
          :  PC potential                    false          :
          :  electronic temp.          300.0000000     K    :
          :  accuracy                    1.0000000          :
          :  -> integral cutoff          0.2500000E+02      :
          :  -> integral neglect         0.1000000E-07      :
          :  -> SCF convergence          0.1000000E-05 Eh   :
          :  -> wf. convergence          0.1000000E-03 e    :
          :  Broyden damping             0.4000000          :
          :  net charge                          0          :
          :  unpaired electrons                  1          :
          ...................................................

 iter      E             dE          RMSdq      gap      omega  full diag
   1    -32.2505962 -0.322506E+02  0.922E-07    4.63       0.0  T
   2    -32.2505962  0.142109E-13  0.525E-07    4.63   44914.6  T
   3    -32.2505962 -0.142109E-13  0.280E-07    4.63   84166.9  T

   *** convergence criteria satisfied after 3 iterations ***

         #    Occupation            Energy/Eh            Energy/eV
      -------------------------------------------------------------
         1        2.0000           -0.7262689             -19.7628
       ...           ...                  ...                  ...
        21        2.0000           -0.4847767             -13.1914
        22        2.0000           -0.4676554             -12.7256
        23        2.0000           -0.4507741             -12.2662
        24        2.0000           -0.4254129             -11.5761
        25        2.0000           -0.4222563             -11.4902
        26        2.0000           -0.4138798             -11.2622
        27        2.0000           -0.4044260             -11.0050 (HOMO)
        28                         -0.2344345              -6.3793 (LUMO)
        29                         -0.0401449              -1.0924
        30                          0.0358454               0.9754
        31                          0.0370460               1.0081
        32                          0.0471384               1.2827
       ...                                ...                  ...
        45                          0.5936222              16.1533
      -------------------------------------------------------------
                  HL-Gap            0.1699916 Eh            4.6257 eV
             Fermi-level           -0.3194303 Eh           -8.6921 eV

 SCC (total)                   0 d,  0 h,  0 min,  0.011 sec
 SCC setup                      ...        0 min,  0.000 sec (  2.358%)
 Dispersion                     ...        0 min,  0.000 sec (  1.204%)
 classical contributions        ...        0 min,  0.000 sec (  0.188%)
 integral evaluation            ...        0 min,  0.001 sec (  6.185%)
 iterations                     ...        0 min,  0.008 sec ( 73.921%)
 molecular gradient             ...        0 min,  0.001 sec ( 13.764%)
 printout                       ...        0 min,  0.000 sec (  2.134%)

         :::::::::::::::::::::::::::::::::::::::::::::::::::::
         ::                     SUMMARY                     ::
         :::::::::::::::::::::::::::::::::::::::::::::::::::::
         :: total energy             -31.980164346157 Eh    ::
         :: gradient norm              0.000021792988 Eh/a0 ::
         :: HOMO-LUMO gap              4.625706612850 eV    ::
         ::.................................................::
         :: SCC energy               -32.250538670461 Eh    ::
         :: -> isotropic ES            0.105839024241 Eh    ::
         :: -> anisotropic ES         -0.003872580260 Eh    ::
         :: -> anisotropic XC          0.006891741363 Eh    ::
         :: -> dispersion             -0.013169664531 Eh    ::
         :: repulsion energy           0.270374324303 Eh    ::
         :: add. restraining           0.000000000000 Eh    ::
         :: total charge              -0.000000000000 e     ::
         :::::::::::::::::::::::::::::::::::::::::::::::::::::

      ----------------------------------------------------------- 
     |                   =====================                   |
     |                        A N C O P T                        |
     |                   =====================                   |
     |               Approximate Normal Coordinate               |
     |                Rational Function Optimizer                |
      ----------------------------------------------------------- 
      ----------------------------------------------------------- 
     |                   =====================                   |
     |                        A N C O P T                        |
     |                   =====================                   |
     |               Approximate Normal Coordinate               |
     |                Rational Function Optimizer                |
      ----------------------------------------------------------- 

          ...................................................
          :                      SETUP                      :
          :.................................................:
          :   optimization level            normal          :
          :   max. optcycles                   200          :
          :   ANC micro-cycles                  20          :
          :   degrees of freedom                48          :
          :.................................................:
          :   RF solver                   davidson          :
          :   write xtbopt.log                true          :
          :   linear?                        false          :
          :   energy convergence         0.5000000E-05 Eh   :
          :   grad. convergence          0.1000000E-02 Eh/α :
          :   maxmium RF displ.          1.0000000          :
          :   Hlow (freq-cutoff)         0.1000000E-01      :
          :   Hmax (freq-cutoff)         5.0000000          :
          :   S6 in model hess.         20.0000000          :
          ...................................................

generating ANC from exact Hessian ...
Using Lindh-Hessian (1995)
 Shifting diagonal of input Hessian by   7.083269196864165E-003
 Lowest  eigenvalues of input Hessian
    0.000000    0.000000    0.000000    0.000000    0.000000    0.000000
    0.010000    0.011239    0.015093    0.016162    0.022413    0.023767
    0.027502    0.029485    0.032792    0.039984    0.043361    0.050312
 Highest eigenvalues
    1.426266    1.564368    1.629649    1.713406    1.880104    2.381454
 

........................................................................
.............................. CYCLE    1 ..............................
........................................................................

 iter      E             dE          RMSdq      gap      omega  full diag
   1    -32.2505962 -0.322506E+02  0.740E-08    4.63       0.0  T
   2    -32.2505962  0.284217E-13  0.421E-08    4.63  100000.0  T
   3    -32.2505962 -0.426326E-13  0.220E-08    4.63  100000.0  T
     SCC iter.                  ...        0 min,  0.001 sec
     gradient                   ...        0 min,  0.001 sec
 * total energy  :   -31.9801643 Eh     change       -0.7105427E-14 Eh
   gradient norm :     0.0000218 Eh/α   predicted     0.0000000E+00 (-100.00%)
   displ. norm   :     0.0003745 α      lambda       -0.2063727E-08
   maximum displ.:     0.0002384 α      in ANC's #2, #4, #5, ...

   *** GEOMETRY OPTIMIZATION CONVERGED AFTER 1 ITERATIONS ***

------------------------------------------------------------------------
 total energy gain   :        -0.0000000 Eh       -0.0000 kcal/mol
 total RMSD          :         0.0000000 a0        0.0000 Å
 total power (kW/mol):        -0.0000000 (step)   -0.0000 (real)
------------------------------------------------------------------------

 ANCopt (total)                0 d,  0 h,  0 min,  0.012 sec
 optimizer setup                ...        0 min,  0.000 sec (  1.092%)
 model hessian                  ...        0 min,  0.007 sec ( 59.695%)
 ANC generation                 ...        0 min,  0.000 sec (  3.638%)
 coordinate transformation      ...        0 min,  0.000 sec (  0.141%)
 single point calculation       ...        0 min,  0.004 sec ( 30.558%)
 optimization log               ...        0 min,  0.000 sec (  2.364%)
 hessian update                 ...        0 min,  0.000 sec (  0.026%)
 rational function              ...        0 min,  0.000 sec (  1.540%)

================
 final structure:
================
18
 xtb: 6.7.1 (edcfbbe)
O            1.07351689583972        0.24019078293614        0.72431818675567
H            4.39210645100700       -1.54056519560785        2.93322968757727
H            1.51224425409933       -1.17185332681886        3.14475023054089
C            2.28738087213899        0.20775238968620        0.68956579044154
N            3.03798198592602       -0.84289814412552        1.06757581964759
H            2.89489030645225        1.05230935105334        0.33992081760379
O            1.26451180938736       -2.38521014448711        0.84475319324497
H            1.86543562120943       -2.75217992268835        3.39752236934000
H            0.72400416793992       -1.57185755846976        0.76837090604026
C            2.39838993328942       -2.07140675642257        1.55478751497167
N            2.21082666180820       -1.89320635357928        2.98437528091338
H            3.10330086334352       -2.89986639844575        1.40638885690170
O            4.95736373886620       -1.62738778907000        2.14822188181542
H            4.60251245105338        0.94258592377774        2.21832102296955
H            5.89974566502284        0.67153690626675        1.24406102916584
C            4.49533098881856       -0.77824795455635        1.14682316531984
N            4.89292099938131        0.59204437048543        1.31079429207164
H            4.93666633441582       -1.15194017993374        0.20978995467784
 
 Bond Distances (Angstroems)
 ---------------------------
O1-C4=1.2148         H2-O13=0.9712        H3-N11=1.0169        C4-O1=1.2148         C4-N5=1.3454         C4-H6=1.0975         
N5-C4=1.3454         N5-C10=1.4682        N5-C16=1.4609        H6-C4=1.0975         O7-H9=0.9796         O7-C10=1.3742        
H8-N11=1.0138        H9-O7=0.9796         C10-N5=1.4682        C10-O7=1.3742        C10-N11=1.4528       C10-H12=1.0978       
N11-H3=1.0169        N11-H8=1.0138        N11-C10=1.4528       H12-C10=1.0978       O13-H2=0.9712        O13-C16=1.3919       
H14-N17=1.0153       H15-N17=1.0122       C16-N5=1.4609        C16-O13=1.3919       C16-N17=1.4362       C16-H18=1.1011       
N17-H14=1.0153       N17-H15=1.0122       N17-C16=1.4362       H18-C16=1.1011       
 C  H  Rav=1.0988 sigma=0.0016  Rmin=1.0975  Rmax=1.1011     3
 N  H  Rav=1.0145 sigma=0.0018  Rmin=1.0122  Rmax=1.0169     4
 N  C  Rav=1.4327 sigma=0.0449  Rmin=1.3454  Rmax=1.4682     5
 O  H  Rav=0.9754 sigma=0.0042  Rmin=0.9712  Rmax=0.9796     2
 O  C  Rav=1.3269 sigma=0.0796  Rmin=1.2148  Rmax=1.3919     3
 
 selected bond angles (degree)
 --------------------
N5-C4-O1=124.77                H6-C4-O1=122.80                H6-C4-N5=112.43                C10-N5-C4=120.24               
C16-N5-C4=122.49               C16-N5-C10=116.97              C10-O7-H9=107.82               O7-C10-N5=112.28               
N11-C10-N5=106.27              N11-C10-O7=115.46              H12-C10-N5=107.87              H12-C10-O7=106.72              
H12-C10-N11=107.97             
 
 selected dihedral angles (degree)
 ---------------------------------
C10-N5-C4-O1=  0.59           C10-N5-C4-H6=180.51           C16-N5-C4-O1=187.00           C16-N5-C4-H6=  6.92           
O7-C10-N5-C4= 39.36           O7-C10-N5-C16=213.30          N11-C10-N5-C4=272.24          N11-C10-N5-C16= 86.17         
H12-C10-N5-C4=156.66          H12-C10-N5-C16=330.60         N5-C10-O7-H9=312.59           N11-C10-O7-H9= 74.62          
H12-C10-O7-H9=194.61          
           -------------------------------------------------
          |                Final Singlepoint                |
           -------------------------------------------------

          ...................................................
          :                      SETUP                      :
          :.................................................:
          :  # basis functions                  45          :
          :  # atomic orbitals                  45          :
          :  # shells                           27          :
          :  # electrons                        54          :
          :  max. iterations                   250          :
          :  Hamiltonian                  GFN2-xTB          :
          :  restarted?                      false          :
          :  GBSA solvation                  false          :
          :  PC potential                    false          :
          :  electronic temp.          300.0000000     K    :
          :  accuracy                    1.0000000          :
          :  -> integral cutoff          0.2500000E+02      :
          :  -> integral neglect         0.1000000E-07      :
          :  -> SCF convergence          0.1000000E-05 Eh   :
          :  -> wf. convergence          0.1000000E-03 e    :
          :  Broyden damping             0.4000000          :
          :  net charge                          0          :
          :  unpaired electrons                  1          :
          ...................................................

 iter      E             dE          RMSdq      gap      omega  full diag
   1    -32.2505962 -0.322506E+02  0.646E-09    4.63       0.0  T
   2    -32.2505962  0.213163E-13  0.379E-09    4.63  100000.0  T
   3    -32.2505962 -0.142109E-13  0.216E-09    4.63  100000.0  T

   *** convergence criteria satisfied after 3 iterations ***

         #    Occupation            Energy/Eh            Energy/eV
      -------------------------------------------------------------
         1        2.0000           -0.7262689             -19.7628
       ...           ...                  ...                  ...
        21        2.0000           -0.4847767             -13.1914
        22        2.0000           -0.4676554             -12.7256
        23        2.0000           -0.4507741             -12.2662
        24        2.0000           -0.4254129             -11.5761
        25        2.0000           -0.4222563             -11.4902
        26        2.0000           -0.4138798             -11.2622
        27        2.0000           -0.4044260             -11.0050 (HOMO)
        28                         -0.2344345              -6.3793 (LUMO)
        29                         -0.0401449              -1.0924
        30                          0.0358454               0.9754
        31                          0.0370460               1.0081
        32                          0.0471384               1.2827
       ...                                ...                  ...
        45                          0.5936222              16.1533
      -------------------------------------------------------------
                  HL-Gap            0.1699916 Eh            4.6257 eV
             Fermi-level           -0.3194303 Eh           -8.6921 eV

 SCC (total)                   0 d,  0 h,  0 min,  0.004 sec
 SCC setup                      ...        0 min,  0.000 sec (  3.110%)
 Dispersion                     ...        0 min,  0.000 sec (  1.266%)
 classical contributions        ...        0 min,  0.000 sec (  0.332%)
 integral evaluation            ...        0 min,  0.001 sec ( 13.195%)
 iterations                     ...        0 min,  0.002 sec ( 43.336%)
 molecular gradient             ...        0 min,  0.001 sec ( 34.083%)
 printout                       ...        0 min,  0.000 sec (  4.021%)

         :::::::::::::::::::::::::::::::::::::::::::::::::::::
         ::                     SUMMARY                     ::
         :::::::::::::::::::::::::::::::::::::::::::::::::::::
         :: total energy             -31.980164346157 Eh    ::
         :: gradient norm              0.000021792984 Eh/a0 ::
         :: HOMO-LUMO gap              4.625706562664 eV    ::
         ::.................................................::
         :: SCC energy               -32.250538670461 Eh    ::
         :: -> isotropic ES            0.105839021786 Eh    ::
         :: -> anisotropic ES         -0.003872580207 Eh    ::
         :: -> anisotropic XC          0.006891741385 Eh    ::
         :: -> dispersion             -0.013169664525 Eh    ::
         :: repulsion energy           0.270374324303 Eh    ::
         :: add. restraining           0.000000000000 Eh    ::
         :: total charge               0.000000000000 e     ::
         :::::::::::::::::::::::::::::::::::::::::::::::::::::

           ------------------------------------------------- 
          |                Numerical Hessian                |
           ------------------------------------------------- 
step length          :   0.00500
SCC accuracy         :   0.30000
Hessian scale factor :   1.00000
frozen atoms in %    :   0.00000    0
RMS gradient         :   0.00002
estimated CPU  time      0.03 min
estimated wall time      0.00 min

writing file <hessian>.

 projected vibrational frequencies (cm⁻¹)
eigval :       -0.00    -0.00    -0.00     0.00     0.00     0.00
eigval :       36.11    84.47   133.55   213.28   266.67   289.43
eigval :      307.40   327.23   364.42   412.32   456.59   462.54
eigval :      495.60   534.37   564.59   628.86   681.65   831.28
eigval :      914.66   932.23   948.41  1027.53  1058.80  1069.38
eigval :     1100.72  1103.67  1120.10  1149.09  1217.57  1227.19
eigval :     1309.62  1315.08  1326.94  1344.84  1357.40  1390.13
eigval :     1541.42  1543.79  1723.46  2882.16  2882.95  2932.04
eigval :     3247.79  3382.20  3396.12  3406.73  3428.72  3449.23
           -------------------------------------------------
          |                Property Printout                |
           -------------------------------------------------

    * Orbital Energies and Occupations

         #    Occupation            Energy/Eh            Energy/eV
      -------------------------------------------------------------
         1        2.0000           -0.7262689             -19.7628
       ...           ...                  ...                  ...
        15        2.0000           -0.5496255             -14.9561
        16        2.0000           -0.5445122             -14.8169
        17        2.0000           -0.5307038             -14.4412
        18        2.0000           -0.5232035             -14.2371
        19        2.0000           -0.5165556             -14.0562
        20        2.0000           -0.5001353             -13.6094
        21        2.0000           -0.4847767             -13.1914
        22        2.0000           -0.4676554             -12.7256
        23        2.0000           -0.4507741             -12.2662
        24        2.0000           -0.4254129             -11.5761
        25        2.0000           -0.4222563             -11.4902
        26        2.0000           -0.4138798             -11.2622
        27        2.0000           -0.4044260             -11.0050 (HOMO)
        28                         -0.2344345              -6.3793 (LUMO)
        29                         -0.0401449              -1.0924
        30                          0.0358454               0.9754
        31                          0.0370460               1.0081
        32                          0.0471384               1.2827
        33                          0.0614184               1.6713
        34                          0.1033643               2.8127
        35                          0.1109703               3.0197
        36                          0.1146975               3.1211
        37                          0.1363211               3.7095
        38                          0.1482926               4.0352
       ...                                ...                  ...
        45                          0.5936222              16.1533
      -------------------------------------------------------------
                  HL-Gap            0.1699916 Eh            4.6257 eV
             Fermi-level           -0.3194303 Eh           -8.6921 eV

     #   Z          covCN         q      C6AA      α(0)
     1   8 O        0.857    -0.420    22.087     6.301
     2   1 H        0.804     0.320     0.664     1.280
     3   1 H        0.860     0.165     1.303     1.788
     4   6 C        2.706     0.252    22.754     7.808
     5   7 N        2.737    -0.163    24.532     7.356
     6   1 H        0.924     0.039     2.458     2.452
     7   8 O        1.656    -0.455    21.953     6.325
     8   1 H        0.860     0.167     1.294     1.782
     9   1 H        0.803     0.339     0.614     1.231
    10   6 C        3.603     0.258    17.100     5.978
    11   7 N        2.634    -0.384    29.928     8.125
    12   1 H        0.924     0.059     2.208     2.324
    13   8 O        1.656    -0.452    21.879     6.314
    14   1 H        0.860     0.164     1.313     1.795
    15   1 H        0.860     0.175     1.243     1.747
    16   6 C        3.601     0.246    17.293     6.015
    17   7 N        2.633    -0.365    29.416     8.055
    18   1 H        0.923     0.055     2.259     2.350

 Mol. C6AA /au·bohr⁶  :       2865.980270
 Mol. C8AA /au·bohr⁸  :      59774.846111
 Mol. α(0) /au        :         79.025435


Wiberg/Mayer (AO) data.
largest (>0.10) Wiberg bond orders for each atom

 ---------------------------------------------------------------------------
     #   Z sym  total        # sym  WBO       # sym  WBO       # sym  WBO
 ---------------------------------------------------------------------------
     1   8 O    2.030 --     4 C    1.690     5 N    0.201
     2   1 H    0.898 --    13 O    0.864
     3   1 H    0.973 --    11 N    0.955
     4   6 C    3.943 --     1 O    1.690     5 N    1.276     6 H    0.923
     5   7 N    3.482 --     4 C    1.276    16 C    0.947    10 C    0.933
                             1 O    0.201
     6   1 H    0.998 --     4 C    0.923
     7   8 O    1.989 --    10 C    1.032     9 H    0.826
     8   1 H    0.972 --    11 N    0.955
     9   1 H    0.885 --     7 O    0.826
    10   6 C    3.949 --     7 O    1.032    11 N    0.997    12 H    0.949
                             5 N    0.933
    11   7 N    3.022 --    10 C    0.997     3 H    0.955     8 H    0.955
    12   1 H    0.996 --    10 C    0.949
    13   8 O    1.985 --    16 C    1.002     2 H    0.864
    14   1 H    0.973 --    17 N    0.955
    15   1 H    0.969 --    17 N    0.952
    16   6 C    3.951 --    17 N    1.026    13 O    1.002     5 N    0.947
                            18 H    0.945
    17   7 N    3.029 --    16 C    1.026    14 H    0.955    15 H    0.952
    18   1 H    0.997 --    16 C    0.945
 ---------------------------------------------------------------------------

Topologies differ in total number of bonds
Writing topology from bond orders to xtbtopo.mol

molecular dipole:
                 x           y           z       tot (Debye)
 q only:        0.888       0.178       0.705
   full:        0.842       0.255       0.972       3.332
molecular quadrupole (traceless):
                xx          xy          yy          xz          yz          zz
 q only:        5.713       4.449      -8.622       5.689      -1.788       2.909
  q+dip:        4.851       6.236     -10.145       5.513      -1.186       5.293
   full:        4.644       6.324     -10.430       5.803      -1.046       5.787

           -------------------------------------------------
          |                Geometry Summary                 |
           -------------------------------------------------

      molecular mass/u    :      135.1219988
   center of mass at/Å    :        2.9544747      -0.9666017       1.4143142
  moments of inertia/u·Å² :        0.2210462E+03   0.3496024E+03   0.4838842E+03
rotational constants/cm⁻¹ :        0.7626293E-01   0.4821944E-01   0.3483816E-01

 * 17 selected distances

     #   Z          #   Z                                           value/Å
     1   8 O        4   6 C                                       1.2147946
     4   6 C        5   7 N                                       1.3454221
     4   6 C        6   1 H                                       1.0975409
     7   8 O        9   1 H                                       0.9795537
     5   7 N       10   6 C                                       1.4682258 (max)
     7   8 O       10   6 C                                       1.3741547
     3   1 H       11   7 N                                       1.0169011
     8   1 H       11   7 N                                       1.0138152
    10   6 C       11   7 N                                       1.4528100
    10   6 C       12   1 H                                       1.0978466
     2   1 H       13   8 O                                       0.9712319 (min)
     5   7 N       16   6 C                                       1.4609334
    13   8 O       16   6 C                                       1.3918737
    14   1 H       17   7 N                                       1.0152938
    15   1 H       17   7 N                                       1.0121603
    16   6 C       17   7 N                                       1.4361984
    16   6 C       18   1 H                                       1.1011150

 * 5 distinct bonds (by element types)

   Z      Z             #   av. dist./Å        max./Å        min./Å
   1 H    6 C           3     1.0988342     1.1011150     1.0975409
   1 H    7 N           4     1.0145426     1.0169011     1.0121603
   6 C    7 N           5     1.4327179     1.4682258     1.3454221
   1 H    8 O           2     0.9753928     0.9795537     0.9712319
   6 C    8 O           3     1.3269410     1.3918737     1.2147946

           -------------------------------------------------
          |               Frequency Printout                |
           -------------------------------------------------
 projected vibrational frequencies (cm⁻¹)
eigval :       -0.00    -0.00    -0.00     0.00     0.00     0.00
eigval :       36.11    84.47   133.55   213.28   266.67   289.43
eigval :      307.40   327.23   364.42   412.32   456.59   462.54
eigval :      495.60   534.37   564.59   628.86   681.65   831.28
eigval :      914.66   932.23   948.41  1027.53  1058.80  1069.38
eigval :     1100.72  1103.67  1120.10  1149.09  1217.57  1227.19
eigval :     1309.62  1315.08  1326.94  1344.84  1357.40  1390.13
eigval :     1541.42  1543.79  1723.46  2882.16  2882.95  2932.04
eigval :     3247.79  3382.20  3396.12  3406.73  3428.72  3449.23
 reduced masses (amu)
   1: 12.39   2: 13.08   3: 13.10   4: 13.77   5: 13.32   6: 13.82   7: 12.80   8: 12.48
   9: 12.88  10: 11.97  11:  9.17  12: 12.36  13:  4.61  14:  2.67  15: 12.70  16: 11.48
  17:  4.49  18: 11.40  19: 11.49  20: 11.11  21: 10.06  22:  2.63  23: 10.02  24:  9.54
  25:  7.52  26:  5.29  27:  8.97  28:  9.22  29: 11.52  30:  7.65  31:  5.45  32:  4.73
  33: 10.30  34: 10.05  35:  3.47  36:  5.79  37:  3.63  38:  4.25  39:  3.33  40:  4.31
  41:  3.91  42:  9.07  43:  2.21  44:  2.15  45: 13.14  46:  1.72  47:  1.71  48:  1.73
  49:  1.88  50:  1.63  51:  1.63  52:  1.87  53:  1.96  54:  1.96
 IR intensities (km·mol⁻¹)
   1:  0.78   2:  0.22   3:  0.04   4:  0.37   5:  0.07   6:  1.26   7:  2.03   8:  2.71
   9:  4.61  10:  2.26  11: 19.83  12:  7.71  13: 34.49  14: 46.11  15:  6.39  16:  6.63
  17:242.75  18: 20.94  19: 30.63  20:  8.03  21: 24.17  22:244.08  23: 23.04  24: 10.18
  25: 92.59  26: 15.27  27: 86.89  28:135.01  29:150.94  30: 57.99  31: 64.64  32:124.12
  33:118.31  34:265.28  35: 38.11  36: 61.60  37: 72.33  38: 34.70  39:145.47  40: 37.85
  41:187.64  42: 96.40  43: 56.08  44: 55.99  45:571.62  46: 58.20  47: 39.93  48: 22.96
  49:167.34  50:  2.00  51:  3.98  52: 65.34  53:  0.68  54:  0.48
 Raman intensities (Ä⁴*amu⁻¹)
   1:  0.00   2:  0.00   3:  0.00   4:  0.00   5:  0.00   6:  0.00   7:  0.00   8:  0.00
   9:  0.00  10:  0.00  11:  0.00  12:  0.00  13:  0.00  14:  0.00  15:  0.00  16:  0.00
  17:  0.00  18:  0.00  19:  0.00  20:  0.00  21:  0.00  22:  0.00  23:  0.00  24:  0.00
  25:  0.00  26:  0.00  27:  0.00  28:  0.00  29:  0.00  30:  0.00  31:  0.00  32:  0.00
  33:  0.00  34:  0.00  35:  0.00  36:  0.00  37:  0.00  38:  0.00  39:  0.00  40:  0.00
  41:  0.00  42:  0.00  43:  0.00  44:  0.00  45:  0.00  46:  0.00  47:  0.00  48:  0.00
  49:  0.00  50:  0.00  51:  0.00  52:  0.00  53:  0.00  54:  0.00
 output can be read by thermo (or use thermo option).
 writing <g98.out> molden fake output.
 recommended (thermochemical) frequency scaling factor: 1.0
           -------------------------------------------------
          |             Thermodynamic Functions             |
           -------------------------------------------------

Refinement of some symmetry elements was terminated before convergence was reached.
Some symmetry elements may remain unidentified.
Molecule has no symmetry elements
It seems to be the C1 point group
c1  symmetry found (for desy threshold:  0.10E+00) used in thermo

          ...................................................
          :                      SETUP                      :
          :.................................................:
          :  # frequencies                          48      :
          :  # imaginary freq.                       0      :
          :  linear?                             false      :
          :  only rotor calc.                    false      :
          :  symmetry                               c1      :
          :  rotational number                       1      :
          :  scaling factor                  1.0000000      :
          :  rotor cutoff                   50.0000000 cm⁻¹ :
          :  imag. cutoff                  -20.0000000 cm⁻¹ :
          :.................................................:

    mode    ω/cm⁻¹     T·S(HO)/kcal·mol⁻¹    T·S(FR)/kcal·mol⁻¹   T·S(vib)
   ------------------------------------------------------------------------
       1     36.11    -1.62837 ( 21.39%)    -1.15253 ( 78.61%)    -1.25434
       2     84.47    -1.12830 ( 89.06%)    -0.90106 ( 10.94%)    -1.10345
       3    133.55    -0.86293 ( 98.07%)    -0.76540 (  1.93%)    -0.86105
       4    213.28    -0.60089 ( 99.70%)    -0.62676 (  0.30%)    -0.60097
       5    266.67    -0.48231 ( 99.88%)    -0.56059 (  0.12%)    -0.48241
       6    289.43    -0.44046 ( 99.91%)    -0.53634 (  0.09%)    -0.44055
   ------------------------------------------------------------------------

   temp. (K)  partition function   enthalpy   heat capacity  entropy
                                   cal/mol     cal/K/mol   cal/K/mol   J/K/mol
 298.15  VIB   498.                 4430.186     29.864     25.860
         ROT  0.467E+06              888.752      2.981     28.923
         INT  0.233E+09             5318.938     32.845     54.783
         TR   0.152E+28             1481.254      4.968     40.597
         TOT                        6800.1919    37.8131    95.3802   399.0707

       T/K    H(0)-H(T)+PV         H(T)/Eh          T*S/Eh         G(T)/Eh
   ------------------------------------------------------------------------
    298.15    0.108368E-01    0.151674E+00    0.453182E-01    0.106356E+00
   ------------------------------------------------------------------------

         :::::::::::::::::::::::::::::::::::::::::::::::::::::
         ::                  THERMODYNAMIC                  ::
         :::::::::::::::::::::::::::::::::::::::::::::::::::::
         :: total free energy         -31.873808693783 Eh   ::
         ::.................................................::
         :: total energy              -31.980164346157 Eh   ::
         :: zero point energy           0.140837064644 Eh   ::
         :: G(RRHO) w/o ZPVE           -0.034481412270 Eh   ::
         :: G(RRHO) contrib.            0.106355652374 Eh   ::
         :::::::::::::::::::::::::::::::::::::::::::::::::::::

optimized geometry written to: xtbopt.xyz


           -------------------------------------------------
          | TOTAL ENERGY              -31.980164346157 Eh   |
          | TOTAL ENTHALPY            -31.828490485911 Eh   |
          | TOTAL FREE ENERGY         -31.873808693783 Eh   |
          | GRADIENT NORM               0.000021796239 Eh/α |
          | HOMO-LUMO GAP               4.625706475134 eV   |
           -------------------------------------------------

------------------------------------------------------------------------
 * finished run on 2025/01/10 at 14:26:18.889     
------------------------------------------------------------------------
 total:
 * wall-time:     0 d,  0 h,  0 min,  0.238 sec
 *  cpu-time:     0 d,  0 h,  0 min,  1.863 sec
 * ratio c/w:     7.817 speedup
 SCF:
 * wall-time:     0 d,  0 h,  0 min,  0.011 sec
 *  cpu-time:     0 d,  0 h,  0 min,  0.082 sec
 * ratio c/w:     7.544 speedup
 ANC optimizer:
 * wall-time:     0 d,  0 h,  0 min,  0.017 sec
 *  cpu-time:     0 d,  0 h,  0 min,  0.136 sec
 * ratio c/w:     7.997 speedup
 analytical hessian:
 * wall-time:     0 d,  0 h,  0 min,  0.193 sec
 *  cpu-time:     0 d,  0 h,  0 min,  1.540 sec
 * ratio c/w:     7.985 speedup

normal termination of xtb
