      -----------------------------------------------------------      
     |                   =====================                   |     
     |                           x T B                           |     
     |                   =====================                   |     
     |                         S. Grimme                         |     
     |          Mulliken Center for Theoretical Chemistry        |     
     |                    University of Bonn                     |     
      -----------------------------------------------------------      

   * xtb version 6.7.1 (edcfbbe) compiled by 'albert@albert-system' on 2024-07-22

   xtb is free software: you can redistribute it and/or modify it under
   the terms of the GNU Lesser General Public License as published by
   the Free Software Foundation, either version 3 of the License, or
   (at your option) any later version.
   
   xtb is distributed in the hope that it will be useful,
   but WITHOUT ANY WARRANTY; without even the implied warranty of
   MERCHANTABILITY or FITNESS FOR A PARTICULAR PURPOSE.  See the
   GNU Lesser General Public License for more details.
   
   Cite this work as:
   * C. Bannwarth, E. Caldeweyher, S. Ehlert, A. Hansen, P. Pracht,
     J. Seibert, S. Spicher, S. Grimme, WIREs Comput. Mol. Sci., 2020, 11,
     e01493. DOI: 10.1002/wcms.1493
   
   for GFN2-xTB:
   * C. Bannwarth, S. Ehlert and S. Grimme., J. Chem. Theory Comput., 2019,
     15, 1652-1671. DOI: 10.1021/acs.jctc.8b01176
   for GFN1-xTB:
   * S. Grimme, C. Bannwarth, P. Shushkov, J. Chem. Theory Comput., 2017,
     13, 1989-2009. DOI: 10.1021/acs.jctc.7b00118
   for GFN0-xTB:
   * P. Pracht, E. Caldeweyher, S. Ehlert, S. Grimme, ChemRxiv, 2019, preprint.
     DOI: 10.26434/chemrxiv.8326202.v1
   for GFN-FF:
   * S. Spicher and S. Grimme, Angew. Chem. Int. Ed., 2020, 59, 15665-15673.
     DOI: 10.1002/anie.202004239
   
   for ALPB and GBSA implicit solvation:
   * S. Ehlert, M. Stahn, S. Spicher, S. Grimme, J. Chem. Theory Comput.,
     2021, 17, 4250-4261. DOI: 10.1021/acs.jctc.1c00471
   
   for ddCOSMO and CPCM-X implicit solvation:
   * M. Stahn, S. Ehlert, S. Grimme, J. Phys. Chem. A,
     2023, XX, XXXX-XXXX. DOI: 10.1021/acs.jpca.3c04382
   
   for DFT-D4:
   * E. Caldeweyher, C. Bannwarth and S. Grimme, J. Chem. Phys., 2017,
     147, 034112. DOI: 10.1063/1.4993215
   * E. Caldeweyher, S. Ehlert, A. Hansen, H. Neugebauer, S. Spicher,
     C. Bannwarth and S. Grimme, J. Chem. Phys., 2019, 150, 154122.
     DOI: 10.1063/1.5090222
   * E. Caldeweyher, J.-M. Mewes, S. Ehlert and S. Grimme, Phys. Chem. Chem. Phys.
     2020, 22, 8499-8512. DOI: 10.1039/D0CP00502A
   
   for sTDA-xTB:
   * S. Grimme and C. Bannwarth, J. Chem. Phys., 2016, 145, 054103.
     DOI: 10.1063/1.4959605
   
   in the mass-spec context:
   * V. Asgeirsson, C. Bauer and S. Grimme, Chem. Sci., 2017, 8, 4879.
     DOI: 10.1039/c7sc00601b
   * J. Koopman and S. Grimme, ACS Omega 2019, 4, 12, 15120-15133.
     DOI: 10.1021/acsomega.9b02011
   
   for metadynamics refer to:
   * S. Grimme, J. Chem. Theory Comput., 2019, 155, 2847-2862
     DOI: 10.1021/acs.jctc.9b00143
   
   for SPH calculations refer to:
   * S. Spicher and S. Grimme, J. Chem. Theory Comput., 2021, 17, 1701-1714
     DOI: 10.1021/acs.jctc.0c01306
   
   for ONIOM refer to:
   * C. Plett, A. Katbashev, S. Ehlert, S. Grimme, M. Bursch,
     Phys. Chem. Chem. Phys., 2023, 25, 17860-17868. DOI: 10.1039/D3CP02178E
   
   for DIPRO refer to:
   * J. Kohn, N. Gildemeister, S. Grimme, D. Fazzi, A. Hansen,
     J. Chem. Phys., 2023, just accepted.
   
   for PTB refer to:
   * S. Grimme, M. Mueller, A. Hansen, J. Chem. Phys., 2023, 158, 124111.
     DOI: 10.1063/5.0137838
   
   with help from (in alphabetical order)
   P. Atkinson, C. Bannwarth, F. Bohle, G. Brandenburg, E. Caldeweyher
   M. Checinski, S. Dohm, S. Ehlert, S. Ehrlich, I. Gerasimov, C. Hölzer
   A. Katbashev, J. Kohn, J. Koopman, C. Lavigne, S. Lehtola, F. März, M. Müller,
   F. Musil, H. Neugebauer, J. Pisarek, C. Plett, P. Pracht, F. Pultar,
   J. Seibert, P. Shushkov, S. Spicher, M. Stahn, M. Steiner, T. Strunk,
   J. Stückrath, T. Rose, and J. Unsleber
   
 * started run on 2025/01/10 at 14:25:52.278     
   ID    Z sym.   atoms
    1    8 O      1, 7, 13
    2    1 H      2, 3, 6, 8, 9, 12, 14, 15, 18
    3    6 C      4, 10, 16
    4    7 N      5, 11, 17

           -------------------------------------------------
          |                Calculation Setup                |
           -------------------------------------------------

          program call               : /home/adpal/xtb-dist/bin/xtb ./results/p_{0,44}_coordinatesxTB.xyz --ohess --uhf 1 --parallel 8
          coordinate file            : ./results/p_{0,44}_coordinatesxTB.xyz
          omp threads                :                     8


           -------------------------------------------------
          |                 G F N 2 - x T B                 |
           -------------------------------------------------

        Reference                      10.1021/acs.jctc.8b01176
      * Hamiltonian:
        H0-scaling (s, p, d)           1.850000    2.230000    2.230000
        zeta-weighting                 0.500000
      * Dispersion:
        s8                             2.700000
        a1                             0.520000
        a2                             5.000000
        s9                             5.000000
      * Repulsion:
        kExp                           1.500000    1.000000
        rExp                           1.000000
      * Coulomb:
        alpha                          2.000000
        third order                    shell-resolved
        anisotropic                    true
        a3                             3.000000
        a5                             4.000000
        cn-shift                       1.200000
        cn-exp                         4.000000
        max-rad                        5.000000

q/qsh data taken from xtbrestart
CAMM data taken from xtbrestart

          ...................................................
          :                      SETUP                      :
          :.................................................:
          :  # basis functions                  45          :
          :  # atomic orbitals                  45          :
          :  # shells                           27          :
          :  # electrons                        54          :
          :  max. iterations                   250          :
          :  Hamiltonian                  GFN2-xTB          :
          :  restarted?                       true          :
          :  GBSA solvation                  false          :
          :  PC potential                    false          :
          :  electronic temp.          300.0000000     K    :
          :  accuracy                    1.0000000          :
          :  -> integral cutoff          0.2500000E+02      :
          :  -> integral neglect         0.1000000E-07      :
          :  -> SCF convergence          0.1000000E-05 Eh   :
          :  -> wf. convergence          0.1000000E-03 e    :
          :  Broyden damping             0.4000000          :
          :  net charge                          0          :
          :  unpaired electrons                  1          :
          ...................................................

 iter      E             dE          RMSdq      gap      omega  full diag
   1    -32.2268722 -0.322269E+02  0.281E-06    3.87       0.0  T
   2    -32.2268722  0.710543E-14  0.171E-06    3.87   13755.8  T
   3    -32.2268722 -0.355271E-13  0.979E-07    3.87   24077.7  T

   *** convergence criteria satisfied after 3 iterations ***

         #    Occupation            Energy/Eh            Energy/eV
      -------------------------------------------------------------
         1        2.0000           -0.7530032             -20.4903
       ...           ...                  ...                  ...
        21        2.0000           -0.4781880             -13.0122
        22        2.0000           -0.4656541             -12.6711
        23        2.0000           -0.4393043             -11.9541
        24        2.0000           -0.4283665             -11.6564
        25        2.0000           -0.4169552             -11.3459
        26        2.0000           -0.4016518             -10.9295
        27        2.0000           -0.3781938             -10.2912 (HOMO)
        28                         -0.2361355              -6.4256 (LUMO)
        29                         -0.0006734              -0.0183
        30                          0.0383714               1.0441
        31                          0.0511449               1.3917
        32                          0.0578172               1.5733
       ...                                ...                  ...
        45                          0.5969238              16.2431
      -------------------------------------------------------------
                  HL-Gap            0.1420583 Eh            3.8656 eV
             Fermi-level           -0.3071646 Eh           -8.3584 eV

 SCC (total)                   0 d,  0 h,  0 min,  0.007 sec
 SCC setup                      ...        0 min,  0.000 sec (  3.392%)
 Dispersion                     ...        0 min,  0.000 sec (  1.680%)
 classical contributions        ...        0 min,  0.000 sec (  0.260%)
 integral evaluation            ...        0 min,  0.001 sec (  9.141%)
 iterations                     ...        0 min,  0.004 sec ( 60.562%)
 molecular gradient             ...        0 min,  0.002 sec ( 21.315%)
 printout                       ...        0 min,  0.000 sec (  3.267%)

         :::::::::::::::::::::::::::::::::::::::::::::::::::::
         ::                     SUMMARY                     ::
         :::::::::::::::::::::::::::::::::::::::::::::::::::::
         :: total energy             -31.951986423184 Eh    ::
         :: gradient norm              0.000012751507 Eh/a0 ::
         :: HOMO-LUMO gap              3.865603560346 eV    ::
         ::.................................................::
         :: SCC energy               -32.226837804865 Eh    ::
         :: -> isotropic ES            0.099418118265 Eh    ::
         :: -> anisotropic ES         -0.001533753350 Eh    ::
         :: -> anisotropic XC          0.011437888255 Eh    ::
         :: -> dispersion             -0.011273583392 Eh    ::
         :: repulsion energy           0.274851381681 Eh    ::
         :: add. restraining           0.000000000000 Eh    ::
         :: total charge              -0.000000000000 e     ::
         :::::::::::::::::::::::::::::::::::::::::::::::::::::

      ----------------------------------------------------------- 
     |                   =====================                   |
     |                        A N C O P T                        |
     |                   =====================                   |
     |               Approximate Normal Coordinate               |
     |                Rational Function Optimizer                |
      ----------------------------------------------------------- 
      ----------------------------------------------------------- 
     |                   =====================                   |
     |                        A N C O P T                        |
     |                   =====================                   |
     |               Approximate Normal Coordinate               |
     |                Rational Function Optimizer                |
      ----------------------------------------------------------- 

          ...................................................
          :                      SETUP                      :
          :.................................................:
          :   optimization level            normal          :
          :   max. optcycles                   200          :
          :   ANC micro-cycles                  20          :
          :   degrees of freedom                48          :
          :.................................................:
          :   RF solver                   davidson          :
          :   write xtbopt.log                true          :
          :   linear?                        false          :
          :   energy convergence         0.5000000E-05 Eh   :
          :   grad. convergence          0.1000000E-02 Eh/α :
          :   maxmium RF displ.          1.0000000          :
          :   Hlow (freq-cutoff)         0.1000000E-01      :
          :   Hmax (freq-cutoff)         5.0000000          :
          :   S6 in model hess.         20.0000000          :
          ...................................................

generating ANC from exact Hessian ...
Using Lindh-Hessian (1995)
 Shifting diagonal of input Hessian by   8.821103738122905E-003
 Lowest  eigenvalues of input Hessian
    0.000000    0.000000    0.000000    0.000000    0.000000    0.000000
    0.010000    0.010758    0.012359    0.018115    0.021870    0.025959
    0.028530    0.030941    0.036873    0.037785    0.043226    0.060876
 Highest eigenvalues
    1.457679    1.557485    1.629120    1.711323    1.782863    2.311386
 

........................................................................
.............................. CYCLE    1 ..............................
........................................................................

 iter      E             dE          RMSdq      gap      omega  full diag
   1    -32.2268722 -0.322269E+02  0.224E-07    3.87       0.0  T
   2    -32.2268722 -0.710543E-14  0.139E-07    3.87  100000.0  T
   3    -32.2268722  0.000000E+00  0.751E-08    3.87  100000.0  T
     SCC iter.                  ...        0 min,  0.002 sec
     gradient                   ...        0 min,  0.001 sec
 * total energy  :   -31.9519864 Eh     change        0.3552714E-13 Eh
   gradient norm :     0.0000127 Eh/α   predicted     0.0000000E+00 (-100.00%)
   displ. norm   :     0.0012956 α      lambda       -0.1173396E-07
   maximum displ.:     0.0011825 α      in ANC's #1, #2, #3, ...

   *** GEOMETRY OPTIMIZATION CONVERGED AFTER 1 ITERATIONS ***

------------------------------------------------------------------------
 total energy gain   :         0.0000000 Eh        0.0000 kcal/mol
 total RMSD          :         0.0000000 a0        0.0000 Å
 total power (kW/mol):         0.0000000 (step)    0.0000 (real)
------------------------------------------------------------------------

 ANCopt (total)                0 d,  0 h,  0 min,  0.008 sec
 optimizer setup                ...        0 min,  0.000 sec (  1.612%)
 model hessian                  ...        0 min,  0.003 sec ( 38.586%)
 ANC generation                 ...        0 min,  0.000 sec (  5.033%)
 coordinate transformation      ...        0 min,  0.000 sec (  0.174%)
 single point calculation       ...        0 min,  0.004 sec ( 46.961%)
 optimization log               ...        0 min,  0.000 sec (  3.895%)
 hessian update                 ...        0 min,  0.000 sec (  0.024%)
 rational function              ...        0 min,  0.000 sec (  2.295%)

================
 final structure:
================
18
 xtb: 6.7.1 (edcfbbe)
O            2.06598938425399       -0.68566427681207        0.51460006437186
H            1.86510400186931       -3.54193969404952       -0.89065270361675
H            3.05817747458593       -2.89616427184919        0.04320826268150
C            1.59770872895057       -1.57673092550410       -0.43507942262461
N            2.05656273456792       -2.92014810116979       -0.11433316779302
H            1.98685986304028       -1.20396606891258       -1.40357314253234
O           -1.74590340713659       -4.69727005578654       -2.03091050787025
H            0.44233382776897       -5.11315484480563       -3.52190937208777
H           -1.15251782457906       -5.27027416292604       -1.52624426033528
C           -1.00435899996011       -3.85600250427825       -2.86121234304800
N           -0.27399582709694       -4.50361770477849       -3.89937489507841
H           -1.74378704152012       -3.17869617180839       -3.31331370822179
O           -0.05464060032295       -3.13377876108019       -2.11202715454918
H            1.58848496762425       -0.85824660402699        1.33518336968586
H           -0.88982510389819       -5.03352251843949       -4.50107757756948
C           -0.53428910937811       -2.23118076758474       -1.22032463490459
N            0.15666299568114       -1.52760303143398       -0.45777698578413
H           -1.61581606445055       -2.13602953475446       -1.18039182072357
 
 Bond Distances (Angstroems)
 ---------------------------
O1-C4=1.3839         O1-H14=0.9650        H2-N5=1.0129         H3-N5=1.0142         C4-O1=1.3839         C4-N5=1.4554         
C4-H6=1.1083         C4-N17=1.4421        N5-H2=1.0129         N5-H3=1.0142         N5-C4=1.4554         H6-C4=1.1083         
O7-H9=0.9670         O7-C10=1.3954        H8-N11=1.0135        H9-O7=0.9670         C10-O7=1.3954        C10-N11=1.4250       
C10-H12=1.1000       C10-O13=1.4088       N11-H8=1.0135        N11-C10=1.4250       N11-H15=1.0110       H12-C10=1.1000       
O13-C10=1.4088       O13-C16=1.3564       H14-O1=0.9650        H15-N11=1.0110       C16-O13=1.3564       C16-N17=1.2466       
C16-H18=1.0864       N17-C4=1.4421        N17-C16=1.2466       H18-C16=1.0864       
 C  H  Rav=1.0982 sigma=0.0090  Rmin=1.0864  Rmax=1.1083     3
 N  H  Rav=1.0129 sigma=0.0012  Rmin=1.0110  Rmax=1.0142     4
 N  C  Rav=1.3923 sigma=0.0848  Rmin=1.2466  Rmax=1.4554     4
 O  H  Rav=0.9660 sigma=0.0010  Rmin=0.9650  Rmax=0.9670     2
 O  C  Rav=1.3861 sigma=0.0193  Rmin=1.3564  Rmax=1.4088     4
 
 selected bond angles (degree)
 --------------------
H14-O1-C4=107.52               N5-C4-O1=109.66                H6-C4-O1=105.32                H6-C4-N5=113.10                
N17-C4-O1=109.09               N17-C4-N5=110.49               N17-C4-H6=109.01               H3-N5-H2=108.68                
C4-N5-H2=109.76                C4-N5-H3=108.89                C10-O7-H9=109.98               N11-C10-O7=115.59              
H12-C10-O7=104.99              H12-C10-N11=108.96             O13-C10-O7=110.54              O13-C10-N11=105.96             
O13-C10-H12=110.86             
 
 selected dihedral angles (degree)
 ---------------------------------
N5-C4-O1-H14=289.36           H6-C4-O1-H14=167.36           N17-C4-O1-H14= 50.48          H2-N5-C4-O1=190.49            
H2-N5-C4-H6=307.72            H2-N5-C4-N17= 70.22           H3-N5-C4-O1=309.35            H3-N5-C4-H6= 66.57            
H3-N5-C4-N17=189.07           N11-C10-O7-H9= 65.53          H12-C10-O7-H9=185.60          O13-C10-O7-H9=305.20          
           -------------------------------------------------
          |                Final Singlepoint                |
           -------------------------------------------------

          ...................................................
          :                      SETUP                      :
          :.................................................:
          :  # basis functions                  45          :
          :  # atomic orbitals                  45          :
          :  # shells                           27          :
          :  # electrons                        54          :
          :  max. iterations                   250          :
          :  Hamiltonian                  GFN2-xTB          :
          :  restarted?                      false          :
          :  GBSA solvation                  false          :
          :  PC potential                    false          :
          :  electronic temp.          300.0000000     K    :
          :  accuracy                    1.0000000          :
          :  -> integral cutoff          0.2500000E+02      :
          :  -> integral neglect         0.1000000E-07      :
          :  -> SCF convergence          0.1000000E-05 Eh   :
          :  -> wf. convergence          0.1000000E-03 e    :
          :  Broyden damping             0.4000000          :
          :  net charge                          0          :
          :  unpaired electrons                  1          :
          ...................................................

 iter      E             dE          RMSdq      gap      omega  full diag
   1    -32.2268722 -0.322269E+02  0.180E-08    3.87       0.0  T
   2    -32.2268722  0.497380E-13  0.114E-08    3.87  100000.0  T
   3    -32.2268722 -0.355271E-13  0.559E-09    3.87  100000.0  T

   *** convergence criteria satisfied after 3 iterations ***

         #    Occupation            Energy/Eh            Energy/eV
      -------------------------------------------------------------
         1        2.0000           -0.7530032             -20.4903
       ...           ...                  ...                  ...
        21        2.0000           -0.4781880             -13.0122
        22        2.0000           -0.4656541             -12.6711
        23        2.0000           -0.4393044             -11.9541
        24        2.0000           -0.4283665             -11.6564
        25        2.0000           -0.4169552             -11.3459
        26        2.0000           -0.4016518             -10.9295
        27        2.0000           -0.3781938             -10.2912 (HOMO)
        28                         -0.2361355              -6.4256 (LUMO)
        29                         -0.0006734              -0.0183
        30                          0.0383714               1.0441
        31                          0.0511449               1.3917
        32                          0.0578172               1.5733
       ...                                ...                  ...
        45                          0.5969238              16.2431
      -------------------------------------------------------------
                  HL-Gap            0.1420583 Eh            3.8656 eV
             Fermi-level           -0.3071646 Eh           -8.3584 eV

 SCC (total)                   0 d,  0 h,  0 min,  0.004 sec
 SCC setup                      ...        0 min,  0.000 sec (  2.947%)
 Dispersion                     ...        0 min,  0.000 sec (  1.424%)
 classical contributions        ...        0 min,  0.000 sec (  0.284%)
 integral evaluation            ...        0 min,  0.001 sec ( 13.497%)
 iterations                     ...        0 min,  0.002 sec ( 44.479%)
 molecular gradient             ...        0 min,  0.001 sec ( 32.968%)
 printout                       ...        0 min,  0.000 sec (  3.798%)

         :::::::::::::::::::::::::::::::::::::::::::::::::::::
         ::                     SUMMARY                     ::
         :::::::::::::::::::::::::::::::::::::::::::::::::::::
         :: total energy             -31.951986423184 Eh    ::
         :: gradient norm              0.000012756645 Eh/a0 ::
         :: HOMO-LUMO gap              3.865603502594 eV    ::
         ::.................................................::
         :: SCC energy               -32.226837804865 Eh    ::
         :: -> isotropic ES            0.099418109685 Eh    ::
         :: -> anisotropic ES         -0.001533755330 Eh    ::
         :: -> anisotropic XC          0.011437888264 Eh    ::
         :: -> dispersion             -0.011273583366 Eh    ::
         :: repulsion energy           0.274851381681 Eh    ::
         :: add. restraining           0.000000000000 Eh    ::
         :: total charge               0.000000000000 e     ::
         :::::::::::::::::::::::::::::::::::::::::::::::::::::

           ------------------------------------------------- 
          |                Numerical Hessian                |
           ------------------------------------------------- 
step length          :   0.00500
SCC accuracy         :   0.30000
Hessian scale factor :   1.00000
frozen atoms in %    :   0.00000    0
RMS gradient         :   0.00001
estimated CPU  time      0.04 min
estimated wall time      0.01 min

writing file <hessian>.

 projected vibrational frequencies (cm⁻¹)
eigval :       -0.00    -0.00     0.00     0.00     0.00     0.00
eigval :       32.25    36.97    91.83   104.05   215.84   219.47
eigval :      258.59   303.81   320.95   363.37   378.11   440.25
eigval :      452.91   522.01   564.03   614.20   704.79   866.41
eigval :      872.97   902.11   956.19   979.99  1010.69  1016.23
eigval :     1083.89  1099.38  1121.09  1127.72  1166.99  1232.84
eigval :     1239.97  1276.45  1303.49  1324.05  1326.98  1342.95
eigval :     1523.27  1525.69  1757.52  2773.68  2913.80  3000.36
eigval :     3403.29  3413.68  3443.61  3464.07  3500.90  3536.34
           -------------------------------------------------
          |                Property Printout                |
           -------------------------------------------------

    * Orbital Energies and Occupations

         #    Occupation            Energy/Eh            Energy/eV
      -------------------------------------------------------------
         1        2.0000           -0.7530032             -20.4903
       ...           ...                  ...                  ...
        15        2.0000           -0.5420263             -14.7493
        16        2.0000           -0.5307849             -14.4434
        17        2.0000           -0.5280590             -14.3692
        18        2.0000           -0.5167444             -14.0613
        19        2.0000           -0.4996665             -13.5966
        20        2.0000           -0.4891551             -13.3106
        21        2.0000           -0.4781880             -13.0122
        22        2.0000           -0.4656541             -12.6711
        23        2.0000           -0.4393044             -11.9541
        24        2.0000           -0.4283665             -11.6564
        25        2.0000           -0.4169552             -11.3459
        26        2.0000           -0.4016518             -10.9295
        27        2.0000           -0.3781938             -10.2912 (HOMO)
        28                         -0.2361355              -6.4256 (LUMO)
        29                         -0.0006734              -0.0183
        30                          0.0383714               1.0441
        31                          0.0511449               1.3917
        32                          0.0578172               1.5733
        33                          0.0852757               2.3205
        34                          0.0937879               2.5521
        35                          0.1069091               2.9091
        36                          0.1242651               3.3814
        37                          0.1371802               3.7329
        38                          0.1535999               4.1797
       ...                                ...                  ...
        45                          0.5969237              16.2431
      -------------------------------------------------------------
                  HL-Gap            0.1420583 Eh            3.8656 eV
             Fermi-level           -0.3071646 Eh           -8.3584 eV

     #   Z          covCN         q      C6AA      α(0)
     1   8 O        1.659    -0.433    21.491     6.258
     2   1 H        0.860     0.152     1.387     1.845
     3   1 H        0.860     0.158     1.351     1.820
     4   6 C        3.615     0.268    16.909     5.934
     5   7 N        2.631    -0.375    29.692     8.093
     6   1 H        0.922     0.015     2.817     2.625
     7   8 O        1.656    -0.460    22.045     6.338
     8   1 H        0.860     0.168     1.286     1.776
     9   1 H        0.805     0.308     0.697     1.311
    10   6 C        3.562     0.320    16.531     5.927
    11   7 N        2.631    -0.358    29.235     8.030
    12   1 H        0.923     0.044     2.390     2.418
    13   8 O        1.706    -0.293    18.870     5.865
    14   1 H        0.805     0.315     0.677     1.293
    15   1 H        0.860     0.174     1.249     1.751
    16   6 C        2.744     0.214    23.465     7.931
    17   7 N        1.823    -0.270    27.851     7.820
    18   1 H        0.925     0.052     2.297     2.370

 Mol. C6AA /au·bohr⁶  :       2882.392100
 Mol. C8AA /au·bohr⁸  :      59975.480818
 Mol. α(0) /au        :         79.404548


Wiberg/Mayer (AO) data.
largest (>0.10) Wiberg bond orders for each atom

 ---------------------------------------------------------------------------
     #   Z sym  total        # sym  WBO       # sym  WBO       # sym  WBO
 ---------------------------------------------------------------------------
     1   8 O    1.989 --     4 C    1.014    14 H    0.882
     2   1 H    0.977 --     5 N    0.958
     3   1 H    0.975 --     5 N    0.959
     4   6 C    3.957 --     1 O    1.014     5 N    0.988    17 N    0.984
                             6 H    0.937
     5   7 N    2.998 --     4 C    0.988     3 H    0.959     2 H    0.958
     6   1 H    1.000 --     4 C    0.937
     7   8 O    1.982 --    10 C    0.983     9 H    0.884
     8   1 H    0.972 --    11 N    0.954
     9   1 H    0.905 --     7 O    0.884
    10   6 C    3.928 --    11 N    1.035     7 O    0.983    12 H    0.945
                            13 O    0.939
    11   7 N    3.032 --    10 C    1.035     8 H    0.954    15 H    0.953
    12   1 H    0.998 --    10 C    0.945
    13   8 O    2.264 --    16 C    1.061    10 C    0.939    17 N    0.151
    14   1 H    0.901 --     1 O    0.882
    15   1 H    0.969 --    11 N    0.953
    16   6 C    3.930 --    17 N    1.853    13 O    1.061    18 H    0.944
    17   7 N    3.089 --    16 C    1.853     4 C    0.984    13 O    0.151
    18   1 H    0.997 --    16 C    0.944
 ---------------------------------------------------------------------------

Topologies differ in total number of bonds
Writing topology from bond orders to xtbtopo.mol

molecular dipole:
                 x           y           z       tot (Debye)
 q only:       -0.189      -1.009      -0.345
   full:       -0.147      -1.623      -0.678       4.488
molecular quadrupole (traceless):
                xx          xy          yy          xz          yz          zz
 q only:      -10.086      -3.649      10.241       1.085       9.041      -0.155
  q+dip:      -11.908      -5.693      16.644       0.728      12.655      -4.736
   full:      -12.411      -5.518      17.009       0.850      12.765      -4.598

           -------------------------------------------------
          |                Geometry Summary                 |
           -------------------------------------------------

      molecular mass/u    :      135.1219988
   center of mass at/Å    :        0.2640799      -2.8356258      -1.4061879
  moments of inertia/u·Å² :        0.1267161E+03   0.6734432E+03   0.7136876E+03
rotational constants/cm⁻¹ :        0.1330347E+00   0.2503200E-01   0.2362046E-01

 * 16 selected distances

     #   Z          #   Z                                           value/Å
     1   8 O        4   6 C                                       1.3838996
     2   1 H        5   7 N                                       1.0128936
     3   1 H        5   7 N                                       1.0142124
     4   6 C        5   7 N                                       1.4554021 (max)
     4   6 C        6   1 H                                       1.1083197
     7   8 O        9   1 H                                       0.9670203
     7   8 O       10   6 C                                       1.3953568
     8   1 H       11   7 N                                       1.0134812
    10   6 C       11   7 N                                       1.4249974
    10   6 C       12   1 H                                       1.0999516
    10   6 C       13   8 O                                       1.4088474
     1   8 O       14   1 H                                       0.9649623 (min)
    11   7 N       15   1 H                                       1.0109852
    13   8 O       16   6 C                                       1.3564216
    16   6 C       17   7 N                                       1.2465615
    16   6 C       18   1 H                                       1.0864388

 * 5 distinct bonds (by element types)

   Z      Z             #   av. dist./Å        max./Å        min./Å
   1 H    6 C           3     1.0982367     1.1083197     1.0864388
   1 H    7 N           4     1.0128931     1.0142124     1.0109852
   6 C    7 N           3     1.3756537     1.4554021     1.2465615
   1 H    8 O           2     0.9659913     0.9670203     0.9649623
   6 C    8 O           4     1.3861314     1.4088474     1.3564216

           -------------------------------------------------
          |               Frequency Printout                |
           -------------------------------------------------
 projected vibrational frequencies (cm⁻¹)
eigval :       -0.00    -0.00     0.00     0.00     0.00     0.00
eigval :       32.25    36.97    91.83   104.05   215.84   219.47
eigval :      258.59   303.81   320.95   363.37   378.11   440.25
eigval :      452.91   522.01   564.03   614.20   704.79   866.41
eigval :      872.97   902.11   956.19   979.99  1010.69  1016.23
eigval :     1083.89  1099.38  1121.09  1127.72  1166.99  1232.84
eigval :     1239.97  1276.45  1303.49  1324.05  1326.98  1342.95
eigval :     1523.27  1525.69  1757.52  2773.68  2913.80  3000.36
eigval :     3403.29  3413.68  3443.61  3464.07  3500.90  3536.34
 reduced masses (amu)
   1: 12.20   2: 13.34   3: 12.83   4: 13.42   5: 13.32   6: 13.23   7: 12.03   8: 13.07
   9: 13.07  10: 13.45  11:  5.65  12:  4.40  13:  6.46  14:  9.71  15:  5.33  16:  5.27
  17:  6.84  18: 11.18  19: 12.05  20: 12.78  21: 10.10  22: 11.74  23: 11.61  24:  6.69
  25:  5.66  26:  7.72  27: 10.80  28:  6.09  29: 10.68  30: 10.74  31: 10.89  32:  6.49
  33:  9.80  34: 10.55  35:  4.81  36:  5.42  37:  5.98  38:  3.26  39:  3.22  40:  3.10
  41:  3.18  42:  3.82  43:  2.24  44:  2.31  45: 12.78  46:  1.68  47:  1.72  48:  1.78
  49:  1.54  50:  1.58  51:  2.05  52:  2.02  53:  1.86  54:  1.86
 IR intensities (km·mol⁻¹)
   1:  0.95   2:  0.16   3:  0.85   4:  1.17   5:  1.03   6:  0.13   7:  0.35   8:  0.92
   9:  1.34  10:  0.24  11: 40.36  12: 21.93  13: 32.93  14: 43.02  15: 94.15  16: 70.73
  17:161.84  18: 10.65  19: 52.25  20: 36.89  21: 22.19  22: 12.18  23: 25.80  24:130.49
  25: 11.64  26: 51.06  27: 44.68  28: 86.76  29:298.52  30:320.57  31: 76.20  32:112.77
  33:114.50  34:338.90  35: 99.87  36: 41.35  37: 76.58  38: 59.90  39: 72.04  40:108.02
  41:  4.38  42:150.28  43: 10.84  44: 88.13  45:334.05  46: 92.73  47: 39.27  48: 28.12
  49:  3.99  50:  1.88  51:  1.60  52:  0.11  53: 12.23  54: 22.29
 Raman intensities (Ä⁴*amu⁻¹)
   1:  0.00   2:  0.00   3:  0.00   4:  0.00   5:  0.00   6:  0.00   7:  0.00   8:  0.00
   9:  0.00  10:  0.00  11:  0.00  12:  0.00  13:  0.00  14:  0.00  15:  0.00  16:  0.00
  17:  0.00  18:  0.00  19:  0.00  20:  0.00  21:  0.00  22:  0.00  23:  0.00  24:  0.00
  25:  0.00  26:  0.00  27:  0.00  28:  0.00  29:  0.00  30:  0.00  31:  0.00  32:  0.00
  33:  0.00  34:  0.00  35:  0.00  36:  0.00  37:  0.00  38:  0.00  39:  0.00  40:  0.00
  41:  0.00  42:  0.00  43:  0.00  44:  0.00  45:  0.00  46:  0.00  47:  0.00  48:  0.00
  49:  0.00  50:  0.00  51:  0.00  52:  0.00  53:  0.00  54:  0.00
 output can be read by thermo (or use thermo option).
 writing <g98.out> molden fake output.
 recommended (thermochemical) frequency scaling factor: 1.0
           -------------------------------------------------
          |             Thermodynamic Functions             |
           -------------------------------------------------

Refinement of some symmetry elements was terminated before convergence was reached.
Some symmetry elements may remain unidentified.
Molecule has no symmetry elements
It seems to be the C1 point group
c1  symmetry found (for desy threshold:  0.10E+00) used in thermo

          ...................................................
          :                      SETUP                      :
          :.................................................:
          :  # frequencies                          48      :
          :  # imaginary freq.                       0      :
          :  linear?                             false      :
          :  only rotor calc.                    false      :
          :  symmetry                               c1      :
          :  rotational number                       1      :
          :  scaling factor                  1.0000000      :
          :  rotor cutoff                   50.0000000 cm⁻¹ :
          :  imag. cutoff                  -20.0000000 cm⁻¹ :
          :.................................................:

    mode    ω/cm⁻¹     T·S(HO)/kcal·mol⁻¹    T·S(FR)/kcal·mol⁻¹   T·S(vib)
   ------------------------------------------------------------------------
       1     32.25    -1.69534 ( 14.75%)    -1.18618 ( 85.25%)    -1.26127
       2     36.97    -1.61456 ( 23.01%)    -1.14574 ( 76.99%)    -1.25360
       3     91.83    -1.07950 ( 91.92%)    -0.87635 (  8.08%)    -1.06309
       4    104.05    -1.00688 ( 94.94%)    -0.83937 (  5.06%)    -0.99840
       5    215.84    -0.59444 ( 99.71%)    -0.62325 (  0.29%)    -0.59452
       6    219.47    -0.58540 ( 99.73%)    -0.61831 (  0.27%)    -0.58549
       7    258.59    -0.49829 ( 99.86%)    -0.56972 (  0.14%)    -0.49839
   ------------------------------------------------------------------------

   temp. (K)  partition function   enthalpy   heat capacity  entropy
                                   cal/mol     cal/K/mol   cal/K/mol   J/K/mol
 298.15  VIB  0.433E+04             4997.830     30.436     30.655
         ROT  0.596E+06              888.752      2.981     29.408
         INT  0.258E+10             5886.583     33.417     60.063
         TR   0.152E+28             1481.254      4.968     40.597
         TOT                        7367.8366    38.3852   100.6595   421.1592

       T/K    H(0)-H(T)+PV         H(T)/Eh          T*S/Eh         G(T)/Eh
   ------------------------------------------------------------------------
    298.15    0.117414E-01    0.151006E+00    0.478266E-01    0.103179E+00
   ------------------------------------------------------------------------

         :::::::::::::::::::::::::::::::::::::::::::::::::::::
         ::                  THERMODYNAMIC                  ::
         :::::::::::::::::::::::::::::::::::::::::::::::::::::
         :: total free energy         -31.848807156423 Eh   ::
         ::.................................................::
         :: total energy              -31.951986423184 Eh   ::
         :: zero point energy           0.139264433266 Eh   ::
         :: G(RRHO) w/o ZPVE           -0.036085166504 Eh   ::
         :: G(RRHO) contrib.            0.103179266761 Eh   ::
         :::::::::::::::::::::::::::::::::::::::::::::::::::::

optimized geometry written to: xtbopt.xyz


           -------------------------------------------------
          | TOTAL ENERGY              -31.951986423184 Eh   |
          | TOTAL ENTHALPY            -31.800980594947 Eh   |
          | TOTAL FREE ENERGY         -31.848807156423 Eh   |
          | GRADIENT NORM               0.000012758547 Eh/α |
          | HOMO-LUMO GAP               3.865603024433 eV   |
           -------------------------------------------------

------------------------------------------------------------------------
 * finished run on 2025/01/10 at 14:25:52.506     
------------------------------------------------------------------------
 total:
 * wall-time:     0 d,  0 h,  0 min,  0.228 sec
 *  cpu-time:     0 d,  0 h,  0 min,  1.802 sec
 * ratio c/w:     7.894 speedup
 SCF:
 * wall-time:     0 d,  0 h,  0 min,  0.007 sec
 *  cpu-time:     0 d,  0 h,  0 min,  0.057 sec
 * ratio c/w:     7.722 speedup
 ANC optimizer:
 * wall-time:     0 d,  0 h,  0 min,  0.013 sec
 *  cpu-time:     0 d,  0 h,  0 min,  0.104 sec
 * ratio c/w:     7.993 speedup
 analytical hessian:
 * wall-time:     0 d,  0 h,  0 min,  0.191 sec
 *  cpu-time:     0 d,  0 h,  0 min,  1.526 sec
 * ratio c/w:     7.985 speedup

normal termination of xtb
