      -----------------------------------------------------------      
     |                   =====================                   |     
     |                           x T B                           |     
     |                   =====================                   |     
     |                         S. Grimme                         |     
     |          Mulliken Center for Theoretical Chemistry        |     
     |                    University of Bonn                     |     
      -----------------------------------------------------------      

   * xtb version 6.7.1 (edcfbbe) compiled by 'albert@albert-system' on 2024-07-22

   xtb is free software: you can redistribute it and/or modify it under
   the terms of the GNU Lesser General Public License as published by
   the Free Software Foundation, either version 3 of the License, or
   (at your option) any later version.
   
   xtb is distributed in the hope that it will be useful,
   but WITHOUT ANY WARRANTY; without even the implied warranty of
   MERCHANTABILITY or FITNESS FOR A PARTICULAR PURPOSE.  See the
   GNU Lesser General Public License for more details.
   
   Cite this work as:
   * C. Bannwarth, E. Caldeweyher, S. Ehlert, A. Hansen, P. Pracht,
     J. Seibert, S. Spicher, S. Grimme, WIREs Comput. Mol. Sci., 2020, 11,
     e01493. DOI: 10.1002/wcms.1493
   
   for GFN2-xTB:
   * C. Bannwarth, S. Ehlert and S. Grimme., J. Chem. Theory Comput., 2019,
     15, 1652-1671. DOI: 10.1021/acs.jctc.8b01176
   for GFN1-xTB:
   * S. Grimme, C. Bannwarth, P. Shushkov, J. Chem. Theory Comput., 2017,
     13, 1989-2009. DOI: 10.1021/acs.jctc.7b00118
   for GFN0-xTB:
   * P. Pracht, E. Caldeweyher, S. Ehlert, S. Grimme, ChemRxiv, 2019, preprint.
     DOI: 10.26434/chemrxiv.8326202.v1
   for GFN-FF:
   * S. Spicher and S. Grimme, Angew. Chem. Int. Ed., 2020, 59, 15665-15673.
     DOI: 10.1002/anie.202004239
   
   for ALPB and GBSA implicit solvation:
   * S. Ehlert, M. Stahn, S. Spicher, S. Grimme, J. Chem. Theory Comput.,
     2021, 17, 4250-4261. DOI: 10.1021/acs.jctc.1c00471
   
   for ddCOSMO and CPCM-X implicit solvation:
   * M. Stahn, S. Ehlert, S. Grimme, J. Phys. Chem. A,
     2023, XX, XXXX-XXXX. DOI: 10.1021/acs.jpca.3c04382
   
   for DFT-D4:
   * E. Caldeweyher, C. Bannwarth and S. Grimme, J. Chem. Phys., 2017,
     147, 034112. DOI: 10.1063/1.4993215
   * E. Caldeweyher, S. Ehlert, A. Hansen, H. Neugebauer, S. Spicher,
     C. Bannwarth and S. Grimme, J. Chem. Phys., 2019, 150, 154122.
     DOI: 10.1063/1.5090222
   * E. Caldeweyher, J.-M. Mewes, S. Ehlert and S. Grimme, Phys. Chem. Chem. Phys.
     2020, 22, 8499-8512. DOI: 10.1039/D0CP00502A
   
   for sTDA-xTB:
   * S. Grimme and C. Bannwarth, J. Chem. Phys., 2016, 145, 054103.
     DOI: 10.1063/1.4959605
   
   in the mass-spec context:
   * V. Asgeirsson, C. Bauer and S. Grimme, Chem. Sci., 2017, 8, 4879.
     DOI: 10.1039/c7sc00601b
   * J. Koopman and S. Grimme, ACS Omega 2019, 4, 12, 15120-15133.
     DOI: 10.1021/acsomega.9b02011
   
   for metadynamics refer to:
   * S. Grimme, J. Chem. Theory Comput., 2019, 155, 2847-2862
     DOI: 10.1021/acs.jctc.9b00143
   
   for SPH calculations refer to:
   * S. Spicher and S. Grimme, J. Chem. Theory Comput., 2021, 17, 1701-1714
     DOI: 10.1021/acs.jctc.0c01306
   
   for ONIOM refer to:
   * C. Plett, A. Katbashev, S. Ehlert, S. Grimme, M. Bursch,
     Phys. Chem. Chem. Phys., 2023, 25, 17860-17868. DOI: 10.1039/D3CP02178E
   
   for DIPRO refer to:
   * J. Kohn, N. Gildemeister, S. Grimme, D. Fazzi, A. Hansen,
     J. Chem. Phys., 2023, just accepted.
   
   for PTB refer to:
   * S. Grimme, M. Mueller, A. Hansen, J. Chem. Phys., 2023, 158, 124111.
     DOI: 10.1063/5.0137838
   
   with help from (in alphabetical order)
   P. Atkinson, C. Bannwarth, F. Bohle, G. Brandenburg, E. Caldeweyher
   M. Checinski, S. Dohm, S. Ehlert, S. Ehrlich, I. Gerasimov, C. Hölzer
   A. Katbashev, J. Kohn, J. Koopman, C. Lavigne, S. Lehtola, F. März, M. Müller,
   F. Musil, H. Neugebauer, J. Pisarek, C. Plett, P. Pracht, F. Pultar,
   J. Seibert, P. Shushkov, S. Spicher, M. Stahn, M. Steiner, T. Strunk,
   J. Stückrath, T. Rose, and J. Unsleber
   
 * started run on 2025/01/10 at 14:26:20.399     
   ID    Z sym.   atoms
    1    8 O      1, 4
    2    6 C      2, 6
    3    1 H      3, 5, 8
    4    7 N      7

           -------------------------------------------------
          |                Calculation Setup                |
           -------------------------------------------------

          program call               : /home/adpal/xtb-dist/bin/xtb ./results/p_{0,53}_coordinatesxTB.xyz --ohess --uhf 1 --parallel 8
          coordinate file            : ./results/p_{0,53}_coordinatesxTB.xyz
          omp threads                :                     8


           -------------------------------------------------
          |                 G F N 2 - x T B                 |
           -------------------------------------------------

        Reference                      10.1021/acs.jctc.8b01176
      * Hamiltonian:
        H0-scaling (s, p, d)           1.850000    2.230000    2.230000
        zeta-weighting                 0.500000
      * Dispersion:
        s8                             2.700000
        a1                             0.520000
        a2                             5.000000
        s9                             5.000000
      * Repulsion:
        kExp                           1.500000    1.000000
        rExp                           1.000000
      * Coulomb:
        alpha                          2.000000
        third order                    shell-resolved
        anisotropic                    true
        a3                             3.000000
        a5                             4.000000
        cn-shift                       1.200000
        cn-exp                         4.000000
        max-rad                        5.000000

q/qsh data taken from xtbrestart
CAMM data taken from xtbrestart

          ...................................................
          :                      SETUP                      :
          :.................................................:
          :  # basis functions                  23          :
          :  # atomic orbitals                  23          :
          :  # shells                           13          :
          :  # electrons                        28          :
          :  max. iterations                   250          :
          :  Hamiltonian                  GFN2-xTB          :
          :  restarted?                       true          :
          :  GBSA solvation                  false          :
          :  PC potential                    false          :
          :  electronic temp.          300.0000000     K    :
          :  accuracy                    1.0000000          :
          :  -> integral cutoff          0.2500000E+02      :
          :  -> integral neglect         0.1000000E-07      :
          :  -> SCF convergence          0.1000000E-05 Eh   :
          :  -> wf. convergence          0.1000000E-03 e    :
          :  Broyden damping             0.4000000          :
          :  net charge                          0          :
          :  unpaired electrons                  1          :
          ...................................................

 iter      E             dE          RMSdq      gap      omega  full diag
   1    -16.9960821 -0.169961E+02  0.116E-06    2.84       0.0  T
   2    -16.9960821 -0.710543E-14  0.714E-07    2.84   49490.5  T
   3    -16.9960821 -0.213163E-13  0.139E-07    2.84  100000.0  T

   *** convergence criteria satisfied after 3 iterations ***

         #    Occupation            Energy/Eh            Energy/eV
      -------------------------------------------------------------
         1        2.0000           -0.7652716             -20.8241
       ...           ...                  ...                  ...
         8        2.0000           -0.5809640             -15.8088
         9        2.0000           -0.5567778             -15.1507
        10        2.0000           -0.5548839             -15.0992
        11        2.0000           -0.5306119             -14.4387
        12        2.0000           -0.4649597             -12.6522
        13        2.0000           -0.4328895             -11.7795
        14        2.0000           -0.4174206             -11.3586 (HOMO)
        15                         -0.3131646              -8.5216 (LUMO)
        16                         -0.2069872              -5.6324
        17                          0.0772005               2.1007
        18                          0.0930024               2.5307
        19                          0.1815537               4.9403
       ...                                ...                  ...
        23                          0.6116775              16.6446
      -------------------------------------------------------------
                  HL-Gap            0.1042560 Eh            2.8370 eV
             Fermi-level           -0.3652926 Eh           -9.9401 eV

 SCC (total)                   0 d,  0 h,  0 min,  0.005 sec
 SCC setup                      ...        0 min,  0.000 sec (  4.280%)
 Dispersion                     ...        0 min,  0.000 sec (  2.847%)
 classical contributions        ...        0 min,  0.000 sec (  0.380%)
 integral evaluation            ...        0 min,  0.000 sec (  6.604%)
 iterations                     ...        0 min,  0.003 sec ( 69.630%)
 molecular gradient             ...        0 min,  0.001 sec ( 12.497%)
 printout                       ...        0 min,  0.000 sec (  3.245%)

         :::::::::::::::::::::::::::::::::::::::::::::::::::::
         ::                     SUMMARY                     ::
         :::::::::::::::::::::::::::::::::::::::::::::::::::::
         :: total energy             -16.841369328843 Eh    ::
         :: gradient norm              0.000035418980 Eh/a0 ::
         :: HOMO-LUMO gap              2.836950452513 eV    ::
         ::.................................................::
         :: SCC energy               -16.996081593468 Eh    ::
         :: -> isotropic ES            0.050559485918 Eh    ::
         :: -> anisotropic ES          0.001559751352 Eh    ::
         :: -> anisotropic XC          0.005685974524 Eh    ::
         :: -> dispersion             -0.003705704854 Eh    ::
         :: repulsion energy           0.154712264625 Eh    ::
         :: add. restraining           0.000000000000 Eh    ::
         :: total charge              -0.000000000000 e     ::
         :::::::::::::::::::::::::::::::::::::::::::::::::::::

      ----------------------------------------------------------- 
     |                   =====================                   |
     |                        A N C O P T                        |
     |                   =====================                   |
     |               Approximate Normal Coordinate               |
     |                Rational Function Optimizer                |
      ----------------------------------------------------------- 
      ----------------------------------------------------------- 
     |                   =====================                   |
     |                        A N C O P T                        |
     |                   =====================                   |
     |               Approximate Normal Coordinate               |
     |                Rational Function Optimizer                |
      ----------------------------------------------------------- 

          ...................................................
          :                      SETUP                      :
          :.................................................:
          :   optimization level            normal          :
          :   max. optcycles                   200          :
          :   ANC micro-cycles                  20          :
          :   degrees of freedom                18          :
          :.................................................:
          :   RF solver                   davidson          :
          :   write xtbopt.log                true          :
          :   linear?                        false          :
          :   energy convergence         0.5000000E-05 Eh   :
          :   grad. convergence          0.1000000E-02 Eh/α :
          :   maxmium RF displ.          1.0000000          :
          :   Hlow (freq-cutoff)         0.1000000E-01      :
          :   Hmax (freq-cutoff)         5.0000000          :
          :   S6 in model hess.         20.0000000          :
          ...................................................

generating ANC from exact Hessian ...
Using Lindh-Hessian (1995)
 Shifting diagonal of input Hessian by   0.000000000000000E+000
 Lowest  eigenvalues of input Hessian
    0.000000    0.000000    0.000000    0.000000    0.000000    0.000000
    0.011268    0.019523    0.048575    0.059789    0.090447    0.106931
    0.131650    0.249524    0.265594    0.276874    0.372812    0.713432
 Highest eigenvalues
    0.863435    1.147084    1.441170    1.778670    2.298489    2.341467
 

........................................................................
.............................. CYCLE    1 ..............................
........................................................................

 iter      E             dE          RMSdq      gap      omega  full diag
   1    -16.9960821 -0.169961E+02  0.784E-08    2.84       0.0  T
   2    -16.9960821 -0.177636E-13  0.477E-08    2.84  100000.0  T
   3    -16.9960821  0.142109E-13  0.303E-08    2.84  100000.0  T
     SCC iter.                  ...        0 min,  0.001 sec
     gradient                   ...        0 min,  0.001 sec
 * total energy  :   -16.8413693 Eh     change        0.2486900E-13 Eh
   gradient norm :     0.0000354 Eh/α   predicted     0.0000000E+00 (-100.00%)
   displ. norm   :     0.0012712 α      lambda       -0.1790295E-07
   maximum displ.:     0.0009672 α      in ANC's #1, #3, #2, ...

   *** GEOMETRY OPTIMIZATION CONVERGED AFTER 1 ITERATIONS ***

------------------------------------------------------------------------
 total energy gain   :         0.0000000 Eh        0.0000 kcal/mol
 total RMSD          :         0.0000000 a0        0.0000 Å
 total power (kW/mol):         0.0000000 (step)    0.0000 (real)
------------------------------------------------------------------------

 ANCopt (total)                0 d,  0 h,  0 min,  0.002 sec
 optimizer setup                ...        0 min,  0.000 sec (  4.404%)
 model hessian                  ...        0 min,  0.000 sec ( 17.462%)
 ANC generation                 ...        0 min,  0.000 sec (  4.404%)
 coordinate transformation      ...        0 min,  0.000 sec (  0.443%)
 single point calculation       ...        0 min,  0.001 sec ( 59.748%)
 optimization log               ...        0 min,  0.000 sec (  6.505%)
 hessian update                 ...        0 min,  0.000 sec (  0.077%)
 rational function              ...        0 min,  0.000 sec (  2.958%)

================
 final structure:
================
8
 xtb: 6.7.1 (edcfbbe)
O            2.76458973221304       -1.02269233285608       -0.30735671338183
C            2.35527988256474        0.05001824295192        0.09342982264913
H            1.32354942746829        0.18311121972226        0.44697623012341
O            4.99257442902749        0.22486275094734       -0.67850144911560
H            4.40301314190031       -0.58207498331757       -0.70159106999830
C            4.29788911088076        1.21951128032058       -0.20960214646712
N            3.07082051921451        1.21929251608778        0.17038282708183
H            4.84487375673077        2.15690130614352       -0.13978750089178
 
 Bond Distances (Angstroems)
 ---------------------------
O1-C2=1.2161         C2-O1=1.2161         C2-H3=1.0987         C2-N7=1.3730         H3-C2=1.0987         O4-H5=0.9996         
O4-C6=1.3007         H5-O4=0.9996         C6-O4=1.3007         C6-N7=1.2846         C6-H8=1.0876         N7-C2=1.3730         
N7-C6=1.2846         H8-C6=1.0876         
 C  H  Rav=1.0931 sigma=0.0056  Rmin=1.0876  Rmax=1.0987     2
 N  C  Rav=1.3288 sigma=0.0442  Rmin=1.2846  Rmax=1.3730     2
 O  H  Rav=0.9996 sigma=0.0000  Rmin=0.9996  Rmax=0.9996     1
 O  C  Rav=1.2584 sigma=0.0423  Rmin=1.2161  Rmax=1.3007     2
 
 selected bond angles (degree)
 --------------------
H3-C2-O1=121.94                N7-C2-O1=126.46                N7-C2-H3=111.60                C6-O4-H5=108.10                
N7-C6-O4=128.08                H8-C6-O4=114.43                H8-C6-N7=117.49                C6-N7-C2=118.78                
 
 selected dihedral angles (degree)
 ---------------------------------
N7-C6-O4-H5=  0.00            H8-C6-O4-H5=179.99            C6-N7-C2-O1=  0.00            C6-N7-C2-H3=180.00            
C2-N7-C6-O4=  0.00            C2-N7-C6-H8=179.99            
           -------------------------------------------------
          |                Final Singlepoint                |
           -------------------------------------------------

          ...................................................
          :                      SETUP                      :
          :.................................................:
          :  # basis functions                  23          :
          :  # atomic orbitals                  23          :
          :  # shells                           13          :
          :  # electrons                        28          :
          :  max. iterations                   250          :
          :  Hamiltonian                  GFN2-xTB          :
          :  restarted?                      false          :
          :  GBSA solvation                  false          :
          :  PC potential                    false          :
          :  electronic temp.          300.0000000     K    :
          :  accuracy                    1.0000000          :
          :  -> integral cutoff          0.2500000E+02      :
          :  -> integral neglect         0.1000000E-07      :
          :  -> SCF convergence          0.1000000E-05 Eh   :
          :  -> wf. convergence          0.1000000E-03 e    :
          :  Broyden damping             0.4000000          :
          :  net charge                          0          :
          :  unpaired electrons                  1          :
          ...................................................

 iter      E             dE          RMSdq      gap      omega  full diag
   1    -16.9960821 -0.169961E+02  0.650E-09    2.84       0.0  T
   2    -16.9960821 -0.355271E-14  0.388E-09    2.84  100000.0  T
   3    -16.9960821 -0.710543E-14  0.115E-09    2.84  100000.0  T

   *** convergence criteria satisfied after 3 iterations ***

         #    Occupation            Energy/Eh            Energy/eV
      -------------------------------------------------------------
         1        2.0000           -0.7652716             -20.8241
       ...           ...                  ...                  ...
         8        2.0000           -0.5809640             -15.8088
         9        2.0000           -0.5567778             -15.1507
        10        2.0000           -0.5548839             -15.0992
        11        2.0000           -0.5306119             -14.4387
        12        2.0000           -0.4649597             -12.6522
        13        2.0000           -0.4328895             -11.7795
        14        2.0000           -0.4174206             -11.3586 (HOMO)
        15                         -0.3131646              -8.5216 (LUMO)
        16                         -0.2069872              -5.6324
        17                          0.0772005               2.1007
        18                          0.0930024               2.5307
        19                          0.1815537               4.9403
       ...                                ...                  ...
        23                          0.6116775              16.6446
      -------------------------------------------------------------
                  HL-Gap            0.1042560 Eh            2.8370 eV
             Fermi-level           -0.3652926 Eh           -9.9401 eV

 SCC (total)                   0 d,  0 h,  0 min,  0.001 sec
 SCC setup                      ...        0 min,  0.000 sec (  6.376%)
 Dispersion                     ...        0 min,  0.000 sec (  1.678%)
 classical contributions        ...        0 min,  0.000 sec (  0.607%)
 integral evaluation            ...        0 min,  0.000 sec ( 15.069%)
 iterations                     ...        0 min,  0.001 sec ( 34.244%)
 molecular gradient             ...        0 min,  0.000 sec ( 32.838%)
 printout                       ...        0 min,  0.000 sec (  7.766%)

         :::::::::::::::::::::::::::::::::::::::::::::::::::::
         ::                     SUMMARY                     ::
         :::::::::::::::::::::::::::::::::::::::::::::::::::::
         :: total energy             -16.841369328843 Eh    ::
         :: gradient norm              0.000035419516 Eh/a0 ::
         :: HOMO-LUMO gap              2.836950463645 eV    ::
         ::.................................................::
         :: SCC energy               -16.996081593468 Eh    ::
         :: -> isotropic ES            0.050559486481 Eh    ::
         :: -> anisotropic ES          0.001559751375 Eh    ::
         :: -> anisotropic XC          0.005685974506 Eh    ::
         :: -> dispersion             -0.003705704853 Eh    ::
         :: repulsion energy           0.154712264625 Eh    ::
         :: add. restraining           0.000000000000 Eh    ::
         :: total charge              -0.000000000000 e     ::
         :::::::::::::::::::::::::::::::::::::::::::::::::::::

           ------------------------------------------------- 
          |                Numerical Hessian                |
           ------------------------------------------------- 
step length          :   0.00500
SCC accuracy         :   0.30000
Hessian scale factor :   1.00000
frozen atoms in %    :   0.00000    0
RMS gradient         :   0.00004
estimated CPU  time      0.01 min
estimated wall time      0.00 min

writing file <hessian>.

 projected vibrational frequencies (cm⁻¹)
eigval :       -0.00    -0.00     0.00     0.00     0.00     0.00
eigval :      117.10   288.60   388.16   527.71   831.06   853.60
eigval :      908.60   980.89  1061.14  1172.17  1259.15  1326.54
eigval :     1352.95  1583.42  1697.08  2873.01  2889.79  3013.38
           -------------------------------------------------
          |                Property Printout                |
           -------------------------------------------------

    * Orbital Energies and Occupations

         #    Occupation            Energy/Eh            Energy/eV
      -------------------------------------------------------------
         1        2.0000           -0.7652716             -20.8241
         2        2.0000           -0.7395655             -20.1246
         3        2.0000           -0.6975171             -18.9804
         4        2.0000           -0.6717750             -18.2799
         5        2.0000           -0.6463592             -17.5883
         6        2.0000           -0.5974560             -16.2576
         7        2.0000           -0.5893861             -16.0380
         8        2.0000           -0.5809640             -15.8088
         9        2.0000           -0.5567778             -15.1507
        10        2.0000           -0.5548839             -15.0992
        11        2.0000           -0.5306119             -14.4387
        12        2.0000           -0.4649597             -12.6522
        13        2.0000           -0.4328895             -11.7795
        14        2.0000           -0.4174206             -11.3586 (HOMO)
        15                         -0.3131646              -8.5216 (LUMO)
        16                         -0.2069872              -5.6324
        17                          0.0772005               2.1007
        18                          0.0930024               2.5307
        19                          0.1815537               4.9403
        20                          0.2022184               5.5026
        21                          0.2950809               8.0296
        22                          0.4594724              12.5029
        23                          0.6116775              16.6446
      -------------------------------------------------------------
                  HL-Gap            0.1042560 Eh            2.8370 eV
             Fermi-level           -0.3652926 Eh           -9.9401 eV

     #   Z          covCN         q      C6AA      α(0)
     1   8 O        0.856    -0.388    21.435     6.207
     2   6 C        2.751     0.283    22.207     7.717
     3   1 H        0.923     0.037     2.493     2.469
     4   8 O        1.655    -0.323    19.411     5.948
     5   1 H        0.800     0.370     0.544     1.159
     6   6 C        2.753     0.246    22.880     7.833
     7   7 N        1.822    -0.303    28.704     7.939
     8   1 H        0.925     0.078     2.000     2.212

 Mol. C6AA /au·bohr⁶  :        757.996144
 Mol. C8AA /au·bohr⁸  :      16742.808036
 Mol. α(0) /au        :         41.481930


Wiberg/Mayer (AO) data.
largest (>0.10) Wiberg bond orders for each atom

 ---------------------------------------------------------------------------
     #   Z sym  total        # sym  WBO       # sym  WBO       # sym  WBO
 ---------------------------------------------------------------------------
     1   8 O    2.094 --     2 C    1.763
     2   6 C    3.925 --     1 O    1.763     7 N    1.164     3 H    0.935
     3   1 H    0.999 --     2 C    0.935
     4   8 O    2.311 --     6 C    1.288     5 H    0.774     7 N    0.157
     5   1 H    0.863 --     4 O    0.774
     6   6 C    3.926 --     7 N    1.599     4 O    1.288     8 H    0.943
     7   7 N    3.036 --     6 C    1.599     2 C    1.164     4 O    0.157
     8   1 H    0.994 --     6 C    0.943
 ---------------------------------------------------------------------------

Topologies differ in total number of bonds
Writing topology from bond orders to xtbtopo.mol

molecular dipole:
                 x           y           z       tot (Debye)
 q only:        0.312       0.429       0.013
   full:        0.274       0.279      -0.013       0.994
molecular quadrupole (traceless):
                xx          xy          yy          xz          yz          zz
 q only:        4.705       4.253      -2.426      -0.375      -0.356      -2.279
  q+dip:        5.137       4.013      -3.604      -0.338      -1.191      -1.533
   full:        4.342       3.794      -4.032       0.330      -1.625      -0.310

           -------------------------------------------------
          |                Geometry Summary                 |
           -------------------------------------------------

      molecular mass/u    :       73.0508071
   center of mass at/Å    :        3.5275038       0.2920156      -0.2078065
  moments of inertia/u·Å² :        0.4696692E+02   0.9323060E+02   0.1401975E+03
rotational constants/cm⁻¹ :        0.3589256E+00   0.1808165E+00   0.1202420E+00

 * 7 selected distances

     #   Z          #   Z                                           value/Å
     1   8 O        2   6 C                                       1.2160891
     2   6 C        3   1 H                                       1.0987160
     4   8 O        5   1 H                                       0.9996321 (min)
     4   8 O        6   6 C                                       1.3006845
     2   6 C        7   7 N                                       1.3729978 (max)
     6   6 C        7   7 N                                       1.2845568
     6   6 C        8   1 H                                       1.0875507

 * 4 distinct bonds (by element types)

   Z      Z             #   av. dist./Å        max./Å        min./Å
   1 H    6 C           2     1.0931333     1.0987160     1.0875507
   6 C    7 N           2     1.3287773     1.3729978     1.2845568
   1 H    8 O           1     0.9996321     0.9996321     0.9996321
   6 C    8 O           2     1.2583868     1.3006845     1.2160891

           -------------------------------------------------
          |               Frequency Printout                |
           -------------------------------------------------
 projected vibrational frequencies (cm⁻¹)
eigval :       -0.00    -0.00     0.00     0.00     0.00     0.00
eigval :      117.10   288.60   388.16   527.71   831.06   853.60
eigval :      908.60   980.89  1061.14  1172.17  1259.15  1326.54
eigval :     1352.95  1583.42  1697.08  2873.01  2889.79  3013.38
 reduced masses (amu)
   1: 14.54   2: 13.89   3: 13.65   4: 12.81   5: 13.63   6: 12.92   7: 10.19   8: 14.40
   9:  8.01  10: 12.88  11:  5.12  12: 11.49  13:  4.49  14:  4.59  15: 11.17  16:  5.46
  17:  9.51  18:  5.91  19:  4.00  20: 11.93  21: 13.12  22:  1.76  23:  1.87  24:  1.81
 IR intensities (km·mol⁻¹)
   1:  0.00   2:  0.12   3:  0.09   4:  0.08   5:  0.14   6:  0.34   7: 10.90   8:  9.32
   9:  6.66  10: 24.30  11:205.34  12: 70.20  13: 15.27  14: 34.85  15:114.96  16: 97.21
  17: 33.48  18: 46.61  19: 58.41  20:634.07  21:388.83  22:180.38  23:143.04  24:  2.69
 Raman intensities (Ä⁴*amu⁻¹)
   1:  0.00   2:  0.00   3:  0.00   4:  0.00   5:  0.00   6:  0.00   7:  0.00   8:  0.00
   9:  0.00  10:  0.00  11:  0.00  12:  0.00  13:  0.00  14:  0.00  15:  0.00  16:  0.00
  17:  0.00  18:  0.00  19:  0.00  20:  0.00  21:  0.00  22:  0.00  23:  0.00  24:  0.00
 output can be read by thermo (or use thermo option).
 writing <g98.out> molden fake output.
 recommended (thermochemical) frequency scaling factor: 1.0
           -------------------------------------------------
          |             Thermodynamic Functions             |
           -------------------------------------------------

Molecule has the following symmetry elements: (sigma) 
It seems to be the Cs point group
cs  symmetry found (for desy threshold:  0.10E+00) used in thermo

          ...................................................
          :                      SETUP                      :
          :.................................................:
          :  # frequencies                          18      :
          :  # imaginary freq.                       0      :
          :  linear?                             false      :
          :  only rotor calc.                    false      :
          :  symmetry                               cs      :
          :  rotational number                       1      :
          :  scaling factor                  1.0000000      :
          :  rotor cutoff                   50.0000000 cm⁻¹ :
          :  imag. cutoff                  -20.0000000 cm⁻¹ :
          :.................................................:

    mode    ω/cm⁻¹     T·S(HO)/kcal·mol⁻¹    T·S(FR)/kcal·mol⁻¹   T·S(vib)
   ------------------------------------------------------------------------
       1    117.10    -0.93849 ( 96.78%)    -0.80400 (  3.22%)    -0.93417
       2    288.60    -0.44191 ( 99.91%)    -0.53705 (  0.09%)    -0.44200
   ------------------------------------------------------------------------

   temp. (K)  partition function   enthalpy   heat capacity  entropy
                                   cal/mol     cal/K/mol   cal/K/mol   J/K/mol
 298.15  VIB   4.25                 1238.901      9.399      7.014
         ROT  0.599E+05              888.752      2.981     24.840
         INT  0.254E+06             2127.653     12.380     31.854
         TR   0.604E+27             1481.254      4.968     38.764
         TOT                        3608.9074    17.3482    70.6188   295.4692

       T/K    H(0)-H(T)+PV         H(T)/Eh          T*S/Eh         G(T)/Eh
   ------------------------------------------------------------------------
    298.15    0.575116E-02    0.584323E-01    0.335533E-01    0.248790E-01
   ------------------------------------------------------------------------

         :::::::::::::::::::::::::::::::::::::::::::::::::::::
         ::                  THERMODYNAMIC                  ::
         :::::::::::::::::::::::::::::::::::::::::::::::::::::
         :: total free energy         -16.816490343651 Eh   ::
         ::.................................................::
         :: total energy              -16.841369328843 Eh   ::
         :: zero point energy           0.052681116179 Eh   ::
         :: G(RRHO) w/o ZPVE           -0.027802130987 Eh   ::
         :: G(RRHO) contrib.            0.024878985192 Eh   ::
         :::::::::::::::::::::::::::::::::::::::::::::::::::::

optimized geometry written to: xtbopt.xyz


           -------------------------------------------------
          | TOTAL ENERGY              -16.841369328843 Eh   |
          | TOTAL ENTHALPY            -16.782937052630 Eh   |
          | TOTAL FREE ENERGY         -16.816490343651 Eh   |
          | GRADIENT NORM               0.000035410637 Eh/α |
          | HOMO-LUMO GAP               2.836950283379 eV   |
           -------------------------------------------------

------------------------------------------------------------------------
 * finished run on 2025/01/10 at 14:26:20.453     
------------------------------------------------------------------------
 total:
 * wall-time:     0 d,  0 h,  0 min,  0.052 sec
 *  cpu-time:     0 d,  0 h,  0 min,  0.390 sec
 * ratio c/w:     7.456 speedup
 SCF:
 * wall-time:     0 d,  0 h,  0 min,  0.005 sec
 *  cpu-time:     0 d,  0 h,  0 min,  0.039 sec
 * ratio c/w:     7.567 speedup
 ANC optimizer:
 * wall-time:     0 d,  0 h,  0 min,  0.005 sec
 *  cpu-time:     0 d,  0 h,  0 min,  0.039 sec
 * ratio c/w:     7.984 speedup
 analytical hessian:
 * wall-time:     0 d,  0 h,  0 min,  0.029 sec
 *  cpu-time:     0 d,  0 h,  0 min,  0.229 sec
 * ratio c/w:     7.993 speedup

normal termination of xtb
