      -----------------------------------------------------------      
     |                   =====================                   |     
     |                           x T B                           |     
     |                   =====================                   |     
     |                         S. Grimme                         |     
     |          Mulliken Center for Theoretical Chemistry        |     
     |                    University of Bonn                     |     
      -----------------------------------------------------------      

   * xtb version 6.7.1 (edcfbbe) compiled by 'albert@albert-system' on 2024-07-22

   xtb is free software: you can redistribute it and/or modify it under
   the terms of the GNU Lesser General Public License as published by
   the Free Software Foundation, either version 3 of the License, or
   (at your option) any later version.
   
   xtb is distributed in the hope that it will be useful,
   but WITHOUT ANY WARRANTY; without even the implied warranty of
   MERCHANTABILITY or FITNESS FOR A PARTICULAR PURPOSE.  See the
   GNU Lesser General Public License for more details.
   
   Cite this work as:
   * C. Bannwarth, E. Caldeweyher, S. Ehlert, A. Hansen, P. Pracht,
     J. Seibert, S. Spicher, S. Grimme, WIREs Comput. Mol. Sci., 2020, 11,
     e01493. DOI: 10.1002/wcms.1493
   
   for GFN2-xTB:
   * C. Bannwarth, S. Ehlert and S. Grimme., J. Chem. Theory Comput., 2019,
     15, 1652-1671. DOI: 10.1021/acs.jctc.8b01176
   for GFN1-xTB:
   * S. Grimme, C. Bannwarth, P. Shushkov, J. Chem. Theory Comput., 2017,
     13, 1989-2009. DOI: 10.1021/acs.jctc.7b00118
   for GFN0-xTB:
   * P. Pracht, E. Caldeweyher, S. Ehlert, S. Grimme, ChemRxiv, 2019, preprint.
     DOI: 10.26434/chemrxiv.8326202.v1
   for GFN-FF:
   * S. Spicher and S. Grimme, Angew. Chem. Int. Ed., 2020, 59, 15665-15673.
     DOI: 10.1002/anie.202004239
   
   for ALPB and GBSA implicit solvation:
   * S. Ehlert, M. Stahn, S. Spicher, S. Grimme, J. Chem. Theory Comput.,
     2021, 17, 4250-4261. DOI: 10.1021/acs.jctc.1c00471
   
   for ddCOSMO and CPCM-X implicit solvation:
   * M. Stahn, S. Ehlert, S. Grimme, J. Phys. Chem. A,
     2023, XX, XXXX-XXXX. DOI: 10.1021/acs.jpca.3c04382
   
   for DFT-D4:
   * E. Caldeweyher, C. Bannwarth and S. Grimme, J. Chem. Phys., 2017,
     147, 034112. DOI: 10.1063/1.4993215
   * E. Caldeweyher, S. Ehlert, A. Hansen, H. Neugebauer, S. Spicher,
     C. Bannwarth and S. Grimme, J. Chem. Phys., 2019, 150, 154122.
     DOI: 10.1063/1.5090222
   * E. Caldeweyher, J.-M. Mewes, S. Ehlert and S. Grimme, Phys. Chem. Chem. Phys.
     2020, 22, 8499-8512. DOI: 10.1039/D0CP00502A
   
   for sTDA-xTB:
   * S. Grimme and C. Bannwarth, J. Chem. Phys., 2016, 145, 054103.
     DOI: 10.1063/1.4959605
   
   in the mass-spec context:
   * V. Asgeirsson, C. Bauer and S. Grimme, Chem. Sci., 2017, 8, 4879.
     DOI: 10.1039/c7sc00601b
   * J. Koopman and S. Grimme, ACS Omega 2019, 4, 12, 15120-15133.
     DOI: 10.1021/acsomega.9b02011
   
   for metadynamics refer to:
   * S. Grimme, J. Chem. Theory Comput., 2019, 155, 2847-2862
     DOI: 10.1021/acs.jctc.9b00143
   
   for SPH calculations refer to:
   * S. Spicher and S. Grimme, J. Chem. Theory Comput., 2021, 17, 1701-1714
     DOI: 10.1021/acs.jctc.0c01306
   
   for ONIOM refer to:
   * C. Plett, A. Katbashev, S. Ehlert, S. Grimme, M. Bursch,
     Phys. Chem. Chem. Phys., 2023, 25, 17860-17868. DOI: 10.1039/D3CP02178E
   
   for DIPRO refer to:
   * J. Kohn, N. Gildemeister, S. Grimme, D. Fazzi, A. Hansen,
     J. Chem. Phys., 2023, just accepted.
   
   for PTB refer to:
   * S. Grimme, M. Mueller, A. Hansen, J. Chem. Phys., 2023, 158, 124111.
     DOI: 10.1063/5.0137838
   
   with help from (in alphabetical order)
   P. Atkinson, C. Bannwarth, F. Bohle, G. Brandenburg, E. Caldeweyher
   M. Checinski, S. Dohm, S. Ehlert, S. Ehrlich, I. Gerasimov, C. Hölzer
   A. Katbashev, J. Kohn, J. Koopman, C. Lavigne, S. Lehtola, F. März, M. Müller,
   F. Musil, H. Neugebauer, J. Pisarek, C. Plett, P. Pracht, F. Pultar,
   J. Seibert, P. Shushkov, S. Spicher, M. Stahn, M. Steiner, T. Strunk,
   J. Stückrath, T. Rose, and J. Unsleber
   
 * started run on 2025/01/10 at 14:25:11.257     
   ID    Z sym.   atoms
    1    8 O      1, 4, 13
    2    1 H      2, 3, 5, 6, 9, 12, 14, 15, 18
    3    6 C      7, 10, 16
    4    7 N      8, 11, 17

           -------------------------------------------------
          |                Calculation Setup                |
           -------------------------------------------------

          program call               : /home/adpal/xtb-dist/bin/xtb ./results/p_{0,34}_coordinatesxTB.xyz --ohess --uhf 1 --parallel 8
          coordinate file            : ./results/p_{0,34}_coordinatesxTB.xyz
          omp threads                :                     8


           -------------------------------------------------
          |                 G F N 2 - x T B                 |
           -------------------------------------------------

        Reference                      10.1021/acs.jctc.8b01176
      * Hamiltonian:
        H0-scaling (s, p, d)           1.850000    2.230000    2.230000
        zeta-weighting                 0.500000
      * Dispersion:
        s8                             2.700000
        a1                             0.520000
        a2                             5.000000
        s9                             5.000000
      * Repulsion:
        kExp                           1.500000    1.000000
        rExp                           1.000000
      * Coulomb:
        alpha                          2.000000
        third order                    shell-resolved
        anisotropic                    true
        a3                             3.000000
        a5                             4.000000
        cn-shift                       1.200000
        cn-exp                         4.000000
        max-rad                        5.000000

q/qsh data taken from xtbrestart
CAMM data taken from xtbrestart

          ...................................................
          :                      SETUP                      :
          :.................................................:
          :  # basis functions                  45          :
          :  # atomic orbitals                  45          :
          :  # shells                           27          :
          :  # electrons                        54          :
          :  max. iterations                   250          :
          :  Hamiltonian                  GFN2-xTB          :
          :  restarted?                       true          :
          :  GBSA solvation                  false          :
          :  PC potential                    false          :
          :  electronic temp.          300.0000000     K    :
          :  accuracy                    1.0000000          :
          :  -> integral cutoff          0.2500000E+02      :
          :  -> integral neglect         0.1000000E-07      :
          :  -> SCF convergence          0.1000000E-05 Eh   :
          :  -> wf. convergence          0.1000000E-03 e    :
          :  Broyden damping             0.4000000          :
          :  net charge                          0          :
          :  unpaired electrons                  1          :
          ...................................................

 iter      E             dE          RMSdq      gap      omega  full diag
   1    -32.2372138 -0.322372E+02  0.300E-06    4.62       0.0  T
   2    -32.2372138  0.710543E-14  0.180E-06    4.62   13100.4  T
   3    -32.2372138  0.000000E+00  0.728E-07    4.62   32377.2  T

   *** convergence criteria satisfied after 3 iterations ***

         #    Occupation            Energy/Eh            Energy/eV
      -------------------------------------------------------------
         1        2.0000           -0.7299619             -19.8633
       ...           ...                  ...                  ...
        21        2.0000           -0.4683800             -12.7453
        22        2.0000           -0.4567533             -12.4289
        23        2.0000           -0.4508923             -12.2694
        24        2.0000           -0.4197655             -11.4224
        25        2.0000           -0.4046362             -11.0107
        26        2.0000           -0.3977847             -10.8243
        27        2.0000           -0.3914940             -10.6531 (HOMO)
        28                         -0.2218599              -6.0371 (LUMO)
        29                         -0.0121122              -0.3296
        30                          0.0510392               1.3888
        31                          0.0555475               1.5115
        32                          0.0718584               1.9554
       ...                                ...                  ...
        45                          0.6241875              16.9850
      -------------------------------------------------------------
                  HL-Gap            0.1696341 Eh            4.6160 eV
             Fermi-level           -0.3066770 Eh           -8.3451 eV

 SCC (total)                   0 d,  0 h,  0 min,  0.010 sec
 SCC setup                      ...        0 min,  0.000 sec (  2.749%)
 Dispersion                     ...        0 min,  0.000 sec (  1.504%)
 classical contributions        ...        0 min,  0.000 sec (  0.255%)
 integral evaluation            ...        0 min,  0.001 sec ( 10.815%)
 iterations                     ...        0 min,  0.007 sec ( 67.757%)
 molecular gradient             ...        0 min,  0.001 sec ( 14.286%)
 printout                       ...        0 min,  0.000 sec (  2.351%)

         :::::::::::::::::::::::::::::::::::::::::::::::::::::
         ::                     SUMMARY                     ::
         :::::::::::::::::::::::::::::::::::::::::::::::::::::
         :: total energy             -31.965008924764 Eh    ::
         :: gradient norm              0.000042683351 Eh/a0 ::
         :: HOMO-LUMO gap              4.615978124274 eV    ::
         ::.................................................::
         :: SCC energy               -32.237143832864 Eh    ::
         :: -> isotropic ES            0.099107445123 Eh    ::
         :: -> anisotropic ES         -0.007433273176 Eh    ::
         :: -> anisotropic XC          0.011587215976 Eh    ::
         :: -> dispersion             -0.011991696525 Eh    ::
         :: repulsion energy           0.272134908100 Eh    ::
         :: add. restraining           0.000000000000 Eh    ::
         :: total charge              -0.000000000000 e     ::
         :::::::::::::::::::::::::::::::::::::::::::::::::::::

      ----------------------------------------------------------- 
     |                   =====================                   |
     |                        A N C O P T                        |
     |                   =====================                   |
     |               Approximate Normal Coordinate               |
     |                Rational Function Optimizer                |
      ----------------------------------------------------------- 
      ----------------------------------------------------------- 
     |                   =====================                   |
     |                        A N C O P T                        |
     |                   =====================                   |
     |               Approximate Normal Coordinate               |
     |                Rational Function Optimizer                |
      ----------------------------------------------------------- 

          ...................................................
          :                      SETUP                      :
          :.................................................:
          :   optimization level            normal          :
          :   max. optcycles                   200          :
          :   ANC micro-cycles                  20          :
          :   degrees of freedom                48          :
          :.................................................:
          :   RF solver                   davidson          :
          :   write xtbopt.log                true          :
          :   linear?                        false          :
          :   energy convergence         0.5000000E-05 Eh   :
          :   grad. convergence          0.1000000E-02 Eh/α :
          :   maxmium RF displ.          1.0000000          :
          :   Hlow (freq-cutoff)         0.1000000E-01      :
          :   Hmax (freq-cutoff)         5.0000000          :
          :   S6 in model hess.         20.0000000          :
          ...................................................

generating ANC from exact Hessian ...
Using Lindh-Hessian (1995)
 Shifting diagonal of input Hessian by   8.152781634871955E-003
 Lowest  eigenvalues of input Hessian
    0.000000    0.000000    0.000000    0.000000    0.000000    0.000000
    0.010000    0.011380    0.012468    0.015129    0.020025    0.026262
    0.028496    0.033412    0.037900    0.047013    0.051602    0.055794
 Highest eigenvalues
    1.470402    1.501300    1.607314    1.713379    1.829153    2.375564
 

........................................................................
.............................. CYCLE    1 ..............................
........................................................................

 iter      E             dE          RMSdq      gap      omega  full diag
   1    -32.2372138 -0.322372E+02  0.204E-07    4.62       0.0  T
   2    -32.2372138  0.284217E-13  0.125E-07    4.62  100000.0  T
   3    -32.2372138 -0.284217E-13  0.745E-08    4.62  100000.0  T
     SCC iter.                  ...        0 min,  0.001 sec
     gradient                   ...        0 min,  0.001 sec
 * total energy  :   -31.9650089 Eh     change       -0.2842171E-13 Eh
   gradient norm :     0.0000427 Eh/α   predicted     0.0000000E+00 (-100.00%)
   displ. norm   :     0.0005969 α      lambda       -0.8604957E-08
   maximum displ.:     0.0003215 α      in ANC's #2, #7, #9, ...

   *** GEOMETRY OPTIMIZATION CONVERGED AFTER 1 ITERATIONS ***

------------------------------------------------------------------------
 total energy gain   :        -0.0000000 Eh       -0.0000 kcal/mol
 total RMSD          :         0.0000000 a0        0.0000 Å
 total power (kW/mol):        -0.0000000 (step)   -0.0000 (real)
------------------------------------------------------------------------

 ANCopt (total)                0 d,  0 h,  0 min,  0.010 sec
 optimizer setup                ...        0 min,  0.000 sec (  1.304%)
 model hessian                  ...        0 min,  0.005 sec ( 52.854%)
 ANC generation                 ...        0 min,  0.000 sec (  4.314%)
 coordinate transformation      ...        0 min,  0.000 sec (  0.129%)
 single point calculation       ...        0 min,  0.004 sec ( 35.855%)
 optimization log               ...        0 min,  0.000 sec (  2.560%)
 hessian update                 ...        0 min,  0.000 sec (  0.031%)
 rational function              ...        0 min,  0.000 sec (  1.816%)

================
 final structure:
================
18
 xtb: 6.7.1 (edcfbbe)
O            3.68387149917434       -0.68033166044233       -2.29282155661852
H            5.42400924657417       -1.01999733889641       -3.93627591724344
H            3.87769238266309        1.31002595853552        0.21634708975526
O            2.68604292824713        0.60917059601328       -3.93097404646937
H            4.88941372086289       -0.01827627806665       -5.13342353319771
H            2.25810078654099       -0.14629996032115       -4.35722161876490
C            3.88121216013824        0.17861482109856       -3.38896319383601
N            4.60378135356774       -0.60323419341776       -4.35772425030436
H            4.39346399808462        1.09299880148163       -3.03627921518347
C            3.18347701310152       -0.02980403941695       -1.12336111620077
N            4.24742742660152        0.75883452202071       -0.54803436295340
H            2.37786014945850        0.66234794570204       -1.42111973348027
O            2.72070716340074       -2.94941789639013       -1.37825494575812
H            4.95825057134420        0.13926410894599       -0.17059053116142
H            3.12056108100560       -2.40823651971460       -2.08795425607335
C            2.47317626811545       -2.17395945307695       -0.33071029059371
N            2.63931914516929       -0.93938205305995       -0.16954276940532
H            2.05372310595054       -2.72931736099602        0.50268424748942
 
 Bond Distances (Angstroems)
 ---------------------------
O1-C7=1.4065         O1-C10=1.4287        H2-N8=1.0120         H3-N11=1.0123        O4-H6=0.9672         O4-C7=1.3812         
H5-N8=1.0127         H6-O4=0.9672         C7-O1=1.4065         C7-O4=1.3812         C7-N8=1.4394         C7-H9=1.1058         
N8-H2=1.0120         N8-H5=1.0127         N8-C7=1.4394         H9-C7=1.1058         C10-O1=1.4287        C10-N11=1.4439       
C10-H12=1.1031       C10-N17=1.4259       N11-H3=1.0123        N11-C10=1.4439       N11-H14=1.0157       H12-C10=1.1031       
O13-H15=0.9780       O13-C16=1.3266       H14-N11=1.0157       H15-O13=0.9780       C16-O13=1.3266       C16-N17=1.2561       
C16-H18=1.0858       N17-C10=1.4259       N17-C16=1.2561       H18-C16=1.0858       
 C  H  Rav=1.0982 sigma=0.0089  Rmin=1.0858  Rmax=1.1058     3
 N  H  Rav=1.0132 sigma=0.0015  Rmin=1.0120  Rmax=1.0157     4
 N  C  Rav=1.3913 sigma=0.0784  Rmin=1.2561  Rmax=1.4439     4
 O  H  Rav=0.9726 sigma=0.0054  Rmin=0.9672  Rmax=0.9780     2
 O  C  Rav=1.3858 sigma=0.0381  Rmin=1.3266  Rmax=1.4287     4
 
 selected bond angles (degree)
 --------------------
C10-O1-C7=114.14               C7-O4-H6=108.20                O4-C7-O1=112.01                N8-C7-O1=105.26                
N8-C7-O4=109.85                H9-C7-O1=108.75                H9-C7-O4=105.56                H9-C7-N8=115.55                
H5-N8-H2=109.16                C7-N8-H2=110.50                C7-N8-H5=110.08                N11-C10-O1=108.47              
H12-C10-O1=108.70              H12-C10-N11=107.64             N17-C10-O1=113.00              N17-C10-N11=111.29             
N17-C10-H12=107.58             
 
 selected dihedral angles (degree)
 ---------------------------------
O4-C7-O1-C10=289.12           N8-C7-O1-C10=169.78           H9-C7-O1-C10= 45.40           O1-C7-O4-H6=290.79            
N8-C7-O4-H6= 47.40            H9-C7-O4-H6=172.60            H2-N8-C7-O1=307.86            H2-N8-C7-O4=187.09            
H2-N8-C7-H9= 67.84            H5-N8-C7-O1=187.20            H5-N8-C7-O4= 66.43            H5-N8-C7-H9=307.18            
N11-C10-O1-C7=287.20          H12-C10-O1-C7= 43.96          N17-C10-O1-C7=163.31          
           -------------------------------------------------
          |                Final Singlepoint                |
           -------------------------------------------------

          ...................................................
          :                      SETUP                      :
          :.................................................:
          :  # basis functions                  45          :
          :  # atomic orbitals                  45          :
          :  # shells                           27          :
          :  # electrons                        54          :
          :  max. iterations                   250          :
          :  Hamiltonian                  GFN2-xTB          :
          :  restarted?                      false          :
          :  GBSA solvation                  false          :
          :  PC potential                    false          :
          :  electronic temp.          300.0000000     K    :
          :  accuracy                    1.0000000          :
          :  -> integral cutoff          0.2500000E+02      :
          :  -> integral neglect         0.1000000E-07      :
          :  -> SCF convergence          0.1000000E-05 Eh   :
          :  -> wf. convergence          0.1000000E-03 e    :
          :  Broyden damping             0.4000000          :
          :  net charge                          0          :
          :  unpaired electrons                  1          :
          ...................................................

 iter      E             dE          RMSdq      gap      omega  full diag
   1    -32.2372138 -0.322372E+02  0.275E-08    4.62       0.0  T
   2    -32.2372138 -0.284217E-13  0.168E-08    4.62  100000.0  T
   3    -32.2372138  0.497380E-13  0.114E-08    4.62  100000.0  T

   *** convergence criteria satisfied after 3 iterations ***

         #    Occupation            Energy/Eh            Energy/eV
      -------------------------------------------------------------
         1        2.0000           -0.7299619             -19.8633
       ...           ...                  ...                  ...
        21        2.0000           -0.4683800             -12.7453
        22        2.0000           -0.4567533             -12.4289
        23        2.0000           -0.4508923             -12.2694
        24        2.0000           -0.4197655             -11.4224
        25        2.0000           -0.4046362             -11.0107
        26        2.0000           -0.3977847             -10.8243
        27        2.0000           -0.3914940             -10.6531 (HOMO)
        28                         -0.2218599              -6.0371 (LUMO)
        29                         -0.0121122              -0.3296
        30                          0.0510392               1.3888
        31                          0.0555475               1.5115
        32                          0.0718584               1.9554
       ...                                ...                  ...
        45                          0.6241875              16.9850
      -------------------------------------------------------------
                  HL-Gap            0.1696341 Eh            4.6160 eV
             Fermi-level           -0.3066770 Eh           -8.3451 eV

 SCC (total)                   0 d,  0 h,  0 min,  0.004 sec
 SCC setup                      ...        0 min,  0.000 sec (  3.923%)
 Dispersion                     ...        0 min,  0.000 sec (  1.394%)
 classical contributions        ...        0 min,  0.000 sec (  0.332%)
 integral evaluation            ...        0 min,  0.001 sec ( 13.518%)
 iterations                     ...        0 min,  0.002 sec ( 44.192%)
 molecular gradient             ...        0 min,  0.001 sec ( 32.448%)
 printout                       ...        0 min,  0.000 sec (  3.621%)

         :::::::::::::::::::::::::::::::::::::::::::::::::::::
         ::                     SUMMARY                     ::
         :::::::::::::::::::::::::::::::::::::::::::::::::::::
         :: total energy             -31.965008924764 Eh    ::
         :: gradient norm              0.000042680339 Eh/a0 ::
         :: HOMO-LUMO gap              4.615978145536 eV    ::
         ::.................................................::
         :: SCC energy               -32.237143832864 Eh    ::
         :: -> isotropic ES            0.099107451986 Eh    ::
         :: -> anisotropic ES         -0.007433273026 Eh    ::
         :: -> anisotropic XC          0.011587215558 Eh    ::
         :: -> dispersion             -0.011991696585 Eh    ::
         :: repulsion energy           0.272134908100 Eh    ::
         :: add. restraining           0.000000000000 Eh    ::
         :: total charge              -0.000000000000 e     ::
         :::::::::::::::::::::::::::::::::::::::::::::::::::::

           ------------------------------------------------- 
          |                Numerical Hessian                |
           ------------------------------------------------- 
step length          :   0.00500
SCC accuracy         :   0.30000
Hessian scale factor :   1.00000
frozen atoms in %    :   0.00000    0
RMS gradient         :   0.00004
estimated CPU  time      0.04 min
estimated wall time      0.01 min

writing file <hessian>.

 projected vibrational frequencies (cm⁻¹)
eigval :       -0.00    -0.00    -0.00    -0.00     0.00     0.00
eigval :       45.86    67.66    70.40   136.14   206.24   240.18
eigval :      255.72   306.03   339.47   398.18   422.67   453.23
eigval :      534.75   556.05   625.17   729.40   750.67   892.00
eigval :      899.86   921.88   936.48   966.78  1008.68  1044.44
eigval :     1090.00  1128.89  1149.95  1155.84  1184.39  1218.63
eigval :     1228.28  1276.75  1308.75  1316.94  1336.95  1349.70
eigval :     1515.32  1539.86  1757.84  2829.14  2856.25  3021.73
eigval :     3293.07  3392.58  3422.03  3446.95  3459.23  3498.47
           -------------------------------------------------
          |                Property Printout                |
           -------------------------------------------------

    * Orbital Energies and Occupations

         #    Occupation            Energy/Eh            Energy/eV
      -------------------------------------------------------------
         1        2.0000           -0.7299618             -19.8633
       ...           ...                  ...                  ...
        15        2.0000           -0.5450384             -14.8312
        16        2.0000           -0.5407474             -14.7145
        17        2.0000           -0.5274477             -14.3526
        18        2.0000           -0.5168194             -14.0634
        19        2.0000           -0.4959675             -13.4960
        20        2.0000           -0.4921712             -13.3927
        21        2.0000           -0.4683800             -12.7453
        22        2.0000           -0.4567533             -12.4289
        23        2.0000           -0.4508923             -12.2694
        24        2.0000           -0.4197655             -11.4224
        25        2.0000           -0.4046362             -11.0107
        26        2.0000           -0.3977847             -10.8243
        27        2.0000           -0.3914940             -10.6531 (HOMO)
        28                         -0.2218599              -6.0371 (LUMO)
        29                         -0.0121121              -0.3296
        30                          0.0510392               1.3888
        31                          0.0555475               1.5115
        32                          0.0718584               1.9554
        33                          0.0755144               2.0549
        34                          0.1098217               2.9884
        35                          0.1155328               3.1438
        36                          0.1369987               3.7279
        37                          0.1505440               4.0965
        38                          0.1654162               4.5012
       ...                                ...                  ...
        45                          0.6241875              16.9850
      -------------------------------------------------------------
                  HL-Gap            0.1696341 Eh            4.6160 eV
             Fermi-level           -0.3066770 Eh           -8.3451 eV

     #   Z          covCN         q      C6AA      α(0)
     1   8 O        1.701    -0.376    20.379     6.095
     2   1 H        0.860     0.167     1.294     1.782
     3   1 H        0.860     0.168     1.284     1.775
     4   8 O        1.658    -0.445    21.750     6.296
     5   1 H        0.860     0.166     1.294     1.782
     6   1 H        0.805     0.318     0.669     1.285
     7   6 C        3.554     0.324    16.538     5.939
     8   7 N        2.631    -0.370    29.541     8.072
     9   1 H        0.922     0.020     2.730     2.584
    10   6 C        3.627     0.268    16.862     5.916
    11   7 N        2.632    -0.362    29.342     8.045
    12   1 H        0.923     0.037     2.485     2.465
    13   8 O        1.658    -0.372    20.307     6.083
    14   1 H        0.860     0.160     1.335     1.810
    15   1 H        0.803     0.340     0.611     1.228
    16   6 C        2.708     0.218    23.387     7.916
    17   7 N        1.823    -0.323    29.213     8.009
    18   1 H        0.925     0.060     2.193     2.316

 Mol. C6AA /au·bohr⁶  :       2882.910400
 Mol. C8AA /au·bohr⁸  :      60050.360412
 Mol. α(0) /au        :         79.396833


Wiberg/Mayer (AO) data.
largest (>0.10) Wiberg bond orders for each atom

 ---------------------------------------------------------------------------
     #   Z sym  total        # sym  WBO       # sym  WBO       # sym  WBO
 ---------------------------------------------------------------------------
     1   8 O    2.085 --     7 C    0.945    10 C    0.920
     2   1 H    0.972 --     8 N    0.956
     3   1 H    0.972 --    11 N    0.956
     4   8 O    1.994 --     7 C    1.009     6 H    0.878
     5   1 H    0.971 --     8 N    0.957
     6   1 H    0.899 --     4 O    0.878
     7   6 C    3.931 --     8 N    1.010     4 O    1.009     1 O    0.945
                             9 H    0.941
     8   7 N    3.009 --     7 C    1.010     5 H    0.957     2 H    0.956
     9   1 H    1.000 --     7 C    0.941
    10   6 C    3.942 --    17 N    1.018    11 N    1.010    12 H    0.941
                             1 O    0.920
    11   7 N    3.021 --    10 C    1.010    14 H    0.959     3 H    0.956
    12   1 H    0.999 --    10 C    0.941
    13   8 O    2.212 --    16 C    1.163    15 H    0.827    17 N    0.184
    14   1 H    0.974 --    11 N    0.959
    15   1 H    0.884 --    13 O    0.827
    16   6 C    3.943 --    17 N    1.779    13 O    1.163    18 H    0.943
    17   7 N    3.068 --    16 C    1.779    10 C    1.018    13 O    0.184
    18   1 H    0.996 --    16 C    0.943
 ---------------------------------------------------------------------------

Topologies differ in total number of bonds
Writing topology from bond orders to xtbtopo.mol

molecular dipole:
                 x           y           z       tot (Debye)
 q only:        0.395      -0.015      -0.307
   full:        0.669      -0.029      -0.337       1.906
molecular quadrupole (traceless):
                xx          xy          yy          xz          yz          zz
 q only:        5.025       0.334      -8.876      -6.036       2.807       3.850
  q+dip:       10.714       0.152     -12.166      -7.577       1.807       1.452
   full:       11.135      -0.303     -12.931      -7.450       1.953       1.796

           -------------------------------------------------
          |                Geometry Summary                 |
           -------------------------------------------------

      molecular mass/u    :      135.1219988
   center of mass at/Å    :        3.3640880      -0.6421922      -2.0016316
  moments of inertia/u·Å² :        0.2168010E+03   0.4422891E+03   0.5471726E+03
rotational constants/cm⁻¹ :        0.7775626E-01   0.3811451E-01   0.3080862E-01

 * 17 selected distances

     #   Z          #   Z                                           value/Å
     4   8 O        6   1 H                                       0.9672422 (min)
     1   8 O        7   6 C                                       1.4065060
     4   8 O        7   6 C                                       1.3811531
     2   1 H        8   7 N                                       1.0119705
     5   1 H        8   7 N                                       1.0126555
     7   6 C        8   7 N                                       1.4394070
     7   6 C        9   1 H                                       1.1058419
     1   8 O       10   6 C                                       1.4287123
     3   1 H       11   7 N                                       1.0123217
    10   6 C       11   7 N                                       1.4439330 (max)
    10   6 C       12   1 H                                       1.1030654
    11   7 N       14   1 H                                       1.0156776
    13   8 O       15   1 H                                       0.9779743
    13   8 O       16   6 C                                       1.3266339
    10   6 C       17   7 N                                       1.4259066
    16   6 C       17   7 N                                       1.2560892
    16   6 C       18   1 H                                       1.0857762

 * 5 distinct bonds (by element types)

   Z      Z             #   av. dist./Å        max./Å        min./Å
   1 H    6 C           3     1.0982278     1.1058419     1.0857762
   1 H    7 N           4     1.0131563     1.0156776     1.0119705
   6 C    7 N           4     1.3913340     1.4439330     1.2560892
   1 H    8 O           2     0.9726082     0.9779743     0.9672422
   6 C    8 O           4     1.3857513     1.4287123     1.3266339

           -------------------------------------------------
          |               Frequency Printout                |
           -------------------------------------------------
 projected vibrational frequencies (cm⁻¹)
eigval :       -0.00    -0.00    -0.00    -0.00     0.00     0.00
eigval :       45.86    67.66    70.40   136.14   206.24   240.18
eigval :      255.72   306.03   339.47   398.18   422.67   453.23
eigval :      534.75   556.05   625.17   729.40   750.67   892.00
eigval :      899.86   921.88   936.48   966.78  1008.68  1044.44
eigval :     1090.00  1128.89  1149.95  1155.84  1184.39  1218.63
eigval :     1228.28  1276.75  1308.75  1316.94  1336.95  1349.70
eigval :     1515.32  1539.86  1757.84  2829.14  2856.25  3021.73
eigval :     3293.07  3392.58  3422.03  3446.95  3459.23  3498.47
 reduced masses (amu)
   1: 13.36   2: 13.33   3: 13.25   4: 13.00   5: 12.83   6: 12.52   7: 14.16   8: 11.98
   9: 12.68  10: 12.90  11:  1.78  12:  6.79  13:  7.46  14: 11.26  15:  9.54  16:  6.08
  17: 10.86  18: 10.98  19: 11.93  20: 11.07  21: 10.79  22:  4.26  23: 11.45  24:  7.48
  25:  7.64  26:  4.84  27:  7.93  28: 10.28  29: 11.06  30:  9.64  31:  8.46  32: 10.01
  33:  8.57  34:  6.75  35:  7.46  36:  4.71  37:  6.97  38:  2.77  39:  3.36  40:  3.24
  41:  3.17  42:  3.49  43:  2.39  44:  2.17  45: 12.67  46:  1.69  47:  1.70  48:  1.77
  49:  1.85  50:  1.64  51:  1.52  52:  1.96  53:  2.08  54:  1.86
 IR intensities (km·mol⁻¹)
   1:  0.06   2:  0.14   3:  0.06   4:  0.28   5:  0.22   6:  0.13   7:  0.66   8:  0.96
   9:  2.58  10:  0.34  11: 25.03  12: 39.61  13: 21.29  14:  5.13  15: 11.86  16:119.09
  17: 32.36  18: 20.07  19: 52.72  20: 11.35  21: 21.73  22:182.65  23: 53.36  24: 27.50
  25: 15.84  26:140.22  27:103.50  28:122.40  29:167.29  30:277.93  31:139.83  32: 92.07
  33:220.16  34: 72.08  35:165.06  36: 80.48  37: 50.82  38: 77.38  39: 33.01  40: 13.85
  41: 65.62  42:144.62  43: 55.50  44: 48.95  45:432.16  46: 69.44  47: 38.98  48: 34.68
  49:185.26  50:  3.11  51:  1.27  52:  0.17  53:  0.45  54: 20.48
 Raman intensities (Ä⁴*amu⁻¹)
   1:  0.00   2:  0.00   3:  0.00   4:  0.00   5:  0.00   6:  0.00   7:  0.00   8:  0.00
   9:  0.00  10:  0.00  11:  0.00  12:  0.00  13:  0.00  14:  0.00  15:  0.00  16:  0.00
  17:  0.00  18:  0.00  19:  0.00  20:  0.00  21:  0.00  22:  0.00  23:  0.00  24:  0.00
  25:  0.00  26:  0.00  27:  0.00  28:  0.00  29:  0.00  30:  0.00  31:  0.00  32:  0.00
  33:  0.00  34:  0.00  35:  0.00  36:  0.00  37:  0.00  38:  0.00  39:  0.00  40:  0.00
  41:  0.00  42:  0.00  43:  0.00  44:  0.00  45:  0.00  46:  0.00  47:  0.00  48:  0.00
  49:  0.00  50:  0.00  51:  0.00  52:  0.00  53:  0.00  54:  0.00
 output can be read by thermo (or use thermo option).
 writing <g98.out> molden fake output.
 recommended (thermochemical) frequency scaling factor: 1.0
           -------------------------------------------------
          |             Thermodynamic Functions             |
           -------------------------------------------------

Molecule has no symmetry elements
It seems to be the C1 point group
c1  symmetry found (for desy threshold:  0.10E+00) used in thermo

          ...................................................
          :                      SETUP                      :
          :.................................................:
          :  # frequencies                          48      :
          :  # imaginary freq.                       0      :
          :  linear?                             false      :
          :  only rotor calc.                    false      :
          :  symmetry                               c1      :
          :  rotational number                       1      :
          :  scaling factor                  1.0000000      :
          :  rotor cutoff                   50.0000000 cm⁻¹ :
          :  imag. cutoff                  -20.0000000 cm⁻¹ :
          :.................................................:

    mode    ω/cm⁻¹     T·S(HO)/kcal·mol⁻¹    T·S(FR)/kcal·mol⁻¹   T·S(vib)
   ------------------------------------------------------------------------
       1     45.86    -1.48726 ( 41.45%)    -1.08187 ( 58.55%)    -1.24989
       2     67.66    -1.25827 ( 77.03%)    -0.96676 ( 22.97%)    -1.19131
       3     70.40    -1.23496 ( 79.72%)    -0.95500 ( 20.28%)    -1.17818
       4    136.14    -0.85193 ( 98.21%)    -0.75972 (  1.79%)    -0.85028
       5    206.24    -0.61916 ( 99.66%)    -0.63670 (  0.34%)    -0.61922
       6    240.18    -0.53712 ( 99.81%)    -0.59158 (  0.19%)    -0.53722
       7    255.72    -0.50411 ( 99.85%)    -0.57301 (  0.15%)    -0.50421
   ------------------------------------------------------------------------

   temp. (K)  partition function   enthalpy   heat capacity  entropy
                                   cal/mol     cal/K/mol   cal/K/mol   J/K/mol
 298.15  VIB  0.150E+04             4719.269     30.002     29.141
         ROT  0.553E+06              888.752      2.981     29.260
         INT  0.828E+09             5608.021     32.983     58.401
         TR   0.152E+28             1481.254      4.968     40.597
         TOT                        7089.2754    37.9515    98.9979   414.2073

       T/K    H(0)-H(T)+PV         H(T)/Eh          T*S/Eh         G(T)/Eh
   ------------------------------------------------------------------------
    298.15    0.112975E-01    0.151600E+00    0.470371E-01    0.104562E+00
   ------------------------------------------------------------------------

         :::::::::::::::::::::::::::::::::::::::::::::::::::::
         ::                  THERMODYNAMIC                  ::
         :::::::::::::::::::::::::::::::::::::::::::::::::::::
         :: total free energy         -31.860446496951 Eh   ::
         ::.................................................::
         :: total energy              -31.965008924764 Eh   ::
         :: zero point energy           0.140302056458 Eh   ::
         :: G(RRHO) w/o ZPVE           -0.035739628646 Eh   ::
         :: G(RRHO) contrib.            0.104562427813 Eh   ::
         :::::::::::::::::::::::::::::::::::::::::::::::::::::

optimized geometry written to: xtbopt.xyz


           -------------------------------------------------
          | TOTAL ENERGY              -31.965008924764 Eh   |
          | TOTAL ENTHALPY            -31.813409388878 Eh   |
          | TOTAL FREE ENERGY         -31.860446496951 Eh   |
          | GRADIENT NORM               0.000042675635 Eh/α |
          | HOMO-LUMO GAP               4.615977849414 eV   |
           -------------------------------------------------

------------------------------------------------------------------------
 * finished run on 2025/01/10 at 14:25:11.495     
------------------------------------------------------------------------
 total:
 * wall-time:     0 d,  0 h,  0 min,  0.238 sec
 *  cpu-time:     0 d,  0 h,  0 min,  1.868 sec
 * ratio c/w:     7.852 speedup
 SCF:
 * wall-time:     0 d,  0 h,  0 min,  0.010 sec
 *  cpu-time:     0 d,  0 h,  0 min,  0.076 sec
 * ratio c/w:     7.586 speedup
 ANC optimizer:
 * wall-time:     0 d,  0 h,  0 min,  0.015 sec
 *  cpu-time:     0 d,  0 h,  0 min,  0.120 sec
 * ratio c/w:     7.999 speedup
 analytical hessian:
 * wall-time:     0 d,  0 h,  0 min,  0.195 sec
 *  cpu-time:     0 d,  0 h,  0 min,  1.557 sec
 * ratio c/w:     7.998 speedup

normal termination of xtb
