      -----------------------------------------------------------      
     |                   =====================                   |     
     |                           x T B                           |     
     |                   =====================                   |     
     |                         S. Grimme                         |     
     |          Mulliken Center for Theoretical Chemistry        |     
     |                    University of Bonn                     |     
      -----------------------------------------------------------      

   * xtb version 6.7.1 (edcfbbe) compiled by 'albert@albert-system' on 2024-07-22

   xtb is free software: you can redistribute it and/or modify it under
   the terms of the GNU Lesser General Public License as published by
   the Free Software Foundation, either version 3 of the License, or
   (at your option) any later version.
   
   xtb is distributed in the hope that it will be useful,
   but WITHOUT ANY WARRANTY; without even the implied warranty of
   MERCHANTABILITY or FITNESS FOR A PARTICULAR PURPOSE.  See the
   GNU Lesser General Public License for more details.
   
   Cite this work as:
   * C. Bannwarth, E. Caldeweyher, S. Ehlert, A. Hansen, P. Pracht,
     J. Seibert, S. Spicher, S. Grimme, WIREs Comput. Mol. Sci., 2020, 11,
     e01493. DOI: 10.1002/wcms.1493
   
   for GFN2-xTB:
   * C. Bannwarth, S. Ehlert and S. Grimme., J. Chem. Theory Comput., 2019,
     15, 1652-1671. DOI: 10.1021/acs.jctc.8b01176
   for GFN1-xTB:
   * S. Grimme, C. Bannwarth, P. Shushkov, J. Chem. Theory Comput., 2017,
     13, 1989-2009. DOI: 10.1021/acs.jctc.7b00118
   for GFN0-xTB:
   * P. Pracht, E. Caldeweyher, S. Ehlert, S. Grimme, ChemRxiv, 2019, preprint.
     DOI: 10.26434/chemrxiv.8326202.v1
   for GFN-FF:
   * S. Spicher and S. Grimme, Angew. Chem. Int. Ed., 2020, 59, 15665-15673.
     DOI: 10.1002/anie.202004239
   
   for ALPB and GBSA implicit solvation:
   * S. Ehlert, M. Stahn, S. Spicher, S. Grimme, J. Chem. Theory Comput.,
     2021, 17, 4250-4261. DOI: 10.1021/acs.jctc.1c00471
   
   for ddCOSMO and CPCM-X implicit solvation:
   * M. Stahn, S. Ehlert, S. Grimme, J. Phys. Chem. A,
     2023, XX, XXXX-XXXX. DOI: 10.1021/acs.jpca.3c04382
   
   for DFT-D4:
   * E. Caldeweyher, C. Bannwarth and S. Grimme, J. Chem. Phys., 2017,
     147, 034112. DOI: 10.1063/1.4993215
   * E. Caldeweyher, S. Ehlert, A. Hansen, H. Neugebauer, S. Spicher,
     C. Bannwarth and S. Grimme, J. Chem. Phys., 2019, 150, 154122.
     DOI: 10.1063/1.5090222
   * E. Caldeweyher, J.-M. Mewes, S. Ehlert and S. Grimme, Phys. Chem. Chem. Phys.
     2020, 22, 8499-8512. DOI: 10.1039/D0CP00502A
   
   for sTDA-xTB:
   * S. Grimme and C. Bannwarth, J. Chem. Phys., 2016, 145, 054103.
     DOI: 10.1063/1.4959605
   
   in the mass-spec context:
   * V. Asgeirsson, C. Bauer and S. Grimme, Chem. Sci., 2017, 8, 4879.
     DOI: 10.1039/c7sc00601b
   * J. Koopman and S. Grimme, ACS Omega 2019, 4, 12, 15120-15133.
     DOI: 10.1021/acsomega.9b02011
   
   for metadynamics refer to:
   * S. Grimme, J. Chem. Theory Comput., 2019, 155, 2847-2862
     DOI: 10.1021/acs.jctc.9b00143
   
   for SPH calculations refer to:
   * S. Spicher and S. Grimme, J. Chem. Theory Comput., 2021, 17, 1701-1714
     DOI: 10.1021/acs.jctc.0c01306
   
   for ONIOM refer to:
   * C. Plett, A. Katbashev, S. Ehlert, S. Grimme, M. Bursch,
     Phys. Chem. Chem. Phys., 2023, 25, 17860-17868. DOI: 10.1039/D3CP02178E
   
   for DIPRO refer to:
   * J. Kohn, N. Gildemeister, S. Grimme, D. Fazzi, A. Hansen,
     J. Chem. Phys., 2023, just accepted.
   
   for PTB refer to:
   * S. Grimme, M. Mueller, A. Hansen, J. Chem. Phys., 2023, 158, 124111.
     DOI: 10.1063/5.0137838
   
   with help from (in alphabetical order)
   P. Atkinson, C. Bannwarth, F. Bohle, G. Brandenburg, E. Caldeweyher
   M. Checinski, S. Dohm, S. Ehlert, S. Ehrlich, I. Gerasimov, C. Hölzer
   A. Katbashev, J. Kohn, J. Koopman, C. Lavigne, S. Lehtola, F. März, M. Müller,
   F. Musil, H. Neugebauer, J. Pisarek, C. Plett, P. Pracht, F. Pultar,
   J. Seibert, P. Shushkov, S. Spicher, M. Stahn, M. Steiner, T. Strunk,
   J. Stückrath, T. Rose, and J. Unsleber
   
 * started run on 2025/01/10 at 14:26:37.246     
   ID    Z sym.   atoms
    1    8 O      1, 10
    2    1 H      2, 3, 6, 9, 11, 12, 15
    3    6 C      4, 7, 13
    4    7 N      5, 8, 14

           -------------------------------------------------
          |                Calculation Setup                |
           -------------------------------------------------

          program call               : /home/adpal/xtb-dist/bin/xtb ./results/p_{0,59}_coordinatesxTB.xyz --ohess --uhf 1 --parallel 8
          coordinate file            : ./results/p_{0,59}_coordinatesxTB.xyz
          omp threads                :                     8


           -------------------------------------------------
          |                 G F N 2 - x T B                 |
           -------------------------------------------------

        Reference                      10.1021/acs.jctc.8b01176
      * Hamiltonian:
        H0-scaling (s, p, d)           1.850000    2.230000    2.230000
        zeta-weighting                 0.500000
      * Dispersion:
        s8                             2.700000
        a1                             0.520000
        a2                             5.000000
        s9                             5.000000
      * Repulsion:
        kExp                           1.500000    1.000000
        rExp                           1.000000
      * Coulomb:
        alpha                          2.000000
        third order                    shell-resolved
        anisotropic                    true
        a3                             3.000000
        a5                             4.000000
        cn-shift                       1.200000
        cn-exp                         4.000000
        max-rad                        5.000000

q/qsh data taken from xtbrestart
CAMM data taken from xtbrestart

          ...................................................
          :                      SETUP                      :
          :.................................................:
          :  # basis functions                  39          :
          :  # atomic orbitals                  39          :
          :  # shells                           23          :
          :  # electrons                        46          :
          :  max. iterations                   250          :
          :  Hamiltonian                  GFN2-xTB          :
          :  restarted?                       true          :
          :  GBSA solvation                  false          :
          :  PC potential                    false          :
          :  electronic temp.          300.0000000     K    :
          :  accuracy                    1.0000000          :
          :  -> integral cutoff          0.2500000E+02      :
          :  -> integral neglect         0.1000000E-07      :
          :  -> SCF convergence          0.1000000E-05 Eh   :
          :  -> wf. convergence          0.1000000E-03 e    :
          :  Broyden damping             0.4000000          :
          :  net charge                          0          :
          :  unpaired electrons                  1          :
          ...................................................

 iter      E             dE          RMSdq      gap      omega  full diag
   1    -27.0756740 -0.270757E+02  0.169E-06    3.54       0.0  T
   2    -27.0756740 -0.710543E-14  0.103E-06    3.54   25026.5  T
   3    -27.0756740 -0.142109E-13  0.307E-07    3.54   84208.0  T

   *** convergence criteria satisfied after 3 iterations ***

         #    Occupation            Energy/Eh            Energy/eV
      -------------------------------------------------------------
         1        2.0000           -0.7094922             -19.3063
       ...           ...                  ...                  ...
        17        2.0000           -0.5055726             -13.7573
        18        2.0000           -0.5002471             -13.6124
        19        2.0000           -0.4428094             -12.0495
        20        2.0000           -0.4262340             -11.5984
        21        2.0000           -0.4126346             -11.2284
        22        2.0000           -0.4026545             -10.9568
        23        2.0000           -0.3591014              -9.7716 (HOMO)
        24                         -0.2289965              -6.2313 (LUMO)
        25                         -0.2164204              -5.8891
        26                         -0.0117222              -0.3190
        27                          0.0165229               0.4496
        28                          0.0398094               1.0833
       ...                                ...                  ...
        39                          0.6384065              17.3719
      -------------------------------------------------------------
                  HL-Gap            0.1301050 Eh            3.5403 eV
             Fermi-level           -0.2940489 Eh           -8.0015 eV

 SCC (total)                   0 d,  0 h,  0 min,  0.010 sec
 SCC setup                      ...        0 min,  0.000 sec (  2.449%)
 Dispersion                     ...        0 min,  0.000 sec (  1.319%)
 classical contributions        ...        0 min,  0.000 sec (  0.221%)
 integral evaluation            ...        0 min,  0.001 sec (  6.813%)
 iterations                     ...        0 min,  0.007 sec ( 73.180%)
 molecular gradient             ...        0 min,  0.001 sec ( 13.458%)
 printout                       ...        0 min,  0.000 sec (  2.249%)

         :::::::::::::::::::::::::::::::::::::::::::::::::::::
         ::                     SUMMARY                     ::
         :::::::::::::::::::::::::::::::::::::::::::::::::::::
         :: total energy             -26.818317936106 Eh    ::
         :: gradient norm              0.000014482132 Eh/a0 ::
         :: HOMO-LUMO gap              3.540336730109 eV    ::
         ::.................................................::
         :: SCC energy               -27.075636675726 Eh    ::
         :: -> isotropic ES            0.066666229389 Eh    ::
         :: -> anisotropic ES          0.000062007789 Eh    ::
         :: -> anisotropic XC          0.009692191677 Eh    ::
         :: -> dispersion             -0.009796542184 Eh    ::
         :: repulsion energy           0.257318739620 Eh    ::
         :: add. restraining           0.000000000000 Eh    ::
         :: total charge              -0.000000000000 e     ::
         :::::::::::::::::::::::::::::::::::::::::::::::::::::

      ----------------------------------------------------------- 
     |                   =====================                   |
     |                        A N C O P T                        |
     |                   =====================                   |
     |               Approximate Normal Coordinate               |
     |                Rational Function Optimizer                |
      ----------------------------------------------------------- 
      ----------------------------------------------------------- 
     |                   =====================                   |
     |                        A N C O P T                        |
     |                   =====================                   |
     |               Approximate Normal Coordinate               |
     |                Rational Function Optimizer                |
      ----------------------------------------------------------- 

          ...................................................
          :                      SETUP                      :
          :.................................................:
          :   optimization level            normal          :
          :   max. optcycles                   200          :
          :   ANC micro-cycles                  20          :
          :   degrees of freedom                39          :
          :.................................................:
          :   RF solver                   davidson          :
          :   write xtbopt.log                true          :
          :   linear?                        false          :
          :   energy convergence         0.5000000E-05 Eh   :
          :   grad. convergence          0.1000000E-02 Eh/α :
          :   maxmium RF displ.          1.0000000          :
          :   Hlow (freq-cutoff)         0.1000000E-01      :
          :   Hmax (freq-cutoff)         5.0000000          :
          :   S6 in model hess.         20.0000000          :
          ...................................................

generating ANC from exact Hessian ...
Using Lindh-Hessian (1995)
 Shifting diagonal of input Hessian by   7.271008543502867E-003
 Lowest  eigenvalues of input Hessian
    0.000000    0.000000    0.000000    0.000000    0.000000    0.000000
    0.010000    0.011855    0.017366    0.019925    0.023586    0.027992
    0.035846    0.036677    0.040204    0.055022    0.065429    0.074960
 Highest eigenvalues
    1.495708    1.590365    1.684913    1.873991    1.972303    2.444891
 

........................................................................
.............................. CYCLE    1 ..............................
........................................................................

 iter      E             dE          RMSdq      gap      omega  full diag
   1    -27.0756740 -0.270757E+02  0.115E-07    3.54       0.0  T
   2    -27.0756740 -0.213163E-13  0.689E-08    3.54  100000.0  T
   3    -27.0756740  0.213163E-13  0.350E-08    3.54  100000.0  T
     SCC iter.                  ...        0 min,  0.001 sec
     gradient                   ...        0 min,  0.001 sec
 * total energy  :   -26.8183179 Eh     change        0.7105427E-14 Eh
   gradient norm :     0.0000145 Eh/α   predicted     0.0000000E+00 (-100.00%)
   displ. norm   :     0.0020512 α      lambda       -0.2215163E-07
   maximum displ.:     0.0020470 α      in ANC's #1, #2, #3, ...

   *** GEOMETRY OPTIMIZATION CONVERGED AFTER 1 ITERATIONS ***

------------------------------------------------------------------------
 total energy gain   :         0.0000000 Eh        0.0000 kcal/mol
 total RMSD          :         0.0000001 a0        0.0000 Å
 total power (kW/mol):         0.0000000 (step)    0.0000 (real)
------------------------------------------------------------------------

 ANCopt (total)                0 d,  0 h,  0 min,  0.008 sec
 optimizer setup                ...        0 min,  0.000 sec (  1.619%)
 model hessian                  ...        0 min,  0.003 sec ( 44.258%)
 ANC generation                 ...        0 min,  0.000 sec (  3.873%)
 coordinate transformation      ...        0 min,  0.000 sec (  0.183%)
 single point calculation       ...        0 min,  0.003 sec ( 43.183%)
 optimization log               ...        0 min,  0.000 sec (  3.168%)
 hessian update                 ...        0 min,  0.000 sec (  0.038%)
 rational function              ...        0 min,  0.000 sec (  2.200%)

================
 final structure:
================
15
 xtb: 6.7.1 (edcfbbe)
O            1.89824938662465        0.19787142841197        0.16839178537218
H            3.34716050067240        1.87983594441632        2.38827604801433
H            5.04642585090785       -0.13346176308387        2.76051043327071
C            1.95192016672408        1.03090758358274        1.24392587116935
N            3.20117708747151        1.24491503921876        1.61677880793447
H            0.97099623169259        0.06230228275647       -0.06018519494955
C            4.42640900598304        0.72551221737807        1.01949589980202
N            5.38253523619508        0.54469882311414        2.08688465167712
H            4.15283571659367       -0.18898146684799        0.46382320139127
O            5.21425991661764        2.45626233527134       -2.02534389498798
H            6.27345023237006        0.22767022765570        1.72306542787673
H            5.40521251249043        2.48938252287521        0.46453241110574
C            4.82215371696583        1.61210182155940       -1.26343724763209
N            4.98015852854144        1.65798916084309        0.07431602002837
H            4.30266591014970        0.69353384284862       -1.59066422007260
 
 Bond Distances (Angstroems)
 ---------------------------
O1-C4=1.3615         O1-H6=0.9646         H2-N5=1.0098         H3-N8=1.0132         C4-O1=1.3615         C4-N5=1.3212         
N5-H2=1.0098         N5-C4=1.3212         N5-C7=1.4587         H6-O1=0.9646         C7-N5=1.4587         C7-N8=1.4444         
C7-H9=1.1045         C7-N14=1.4386        N8-H3=1.0132         N8-C7=1.4444         N8-H11=1.0132        H9-C7=1.1045         
O10-C13=1.2029       H11-N8=1.0132        H12-N14=1.0120       C13-O10=1.2029       C13-N14=1.3478       C13-H15=1.1049       
N14-C7=1.4386        N14-H12=1.0120       N14-C13=1.3478       H15-C13=1.1049       
 C  H  Rav=1.1047 sigma=0.0002  Rmin=1.1045  Rmax=1.1049     2
 N  H  Rav=1.0121 sigma=0.0014  Rmin=1.0098  Rmax=1.0132     4
 N  C  Rav=1.4021 sigma=0.0562  Rmin=1.3212  Rmax=1.4587     5
 O  H  Rav=0.9646 sigma=0.0000  Rmin=0.9646  Rmax=0.9646     1
 O  C  Rav=1.2822 sigma=0.0793  Rmin=1.2029  Rmax=1.3615     2
 
 selected bond angles (degree)
 --------------------
H6-O1-C4=108.13                N5-C4-O1=111.06                C4-N5-H2=117.01                C7-N5-H2=114.54                
C7-N5-C4=128.39                N8-C7-N5=107.34                H9-C7-N5=107.02                H9-C7-N8=115.60                
N14-C7-N5=111.20               N14-C7-N8=108.17               N14-C7-H9=107.55               C7-N8-H3=110.82                
H11-N8-H3=108.72               H11-N8-C7=110.85               
 
 selected dihedral angles (degree)
 ---------------------------------
N5-C4-O1-H6=179.30            H2-N5-C4-O1=177.79            C7-N5-C4-O1=  0.77            N8-C7-N5-H2= 35.68            
N8-C7-N5-C4=212.76            H9-C7-N5-H2=160.36            H9-C7-N5-C4=337.45            N14-C7-N5-H2=277.55           
N14-C7-N5-C4= 94.63           H3-N8-C7-N5= 62.03            H3-N8-C7-H9=302.71            H3-N8-C7-N14=182.10           
H11-N8-C7-N5=182.85           H11-N8-C7-H9= 63.53           H11-N8-C7-N14=302.92          
           -------------------------------------------------
          |                Final Singlepoint                |
           -------------------------------------------------

          ...................................................
          :                      SETUP                      :
          :.................................................:
          :  # basis functions                  39          :
          :  # atomic orbitals                  39          :
          :  # shells                           23          :
          :  # electrons                        46          :
          :  max. iterations                   250          :
          :  Hamiltonian                  GFN2-xTB          :
          :  restarted?                      false          :
          :  GBSA solvation                  false          :
          :  PC potential                    false          :
          :  electronic temp.          300.0000000     K    :
          :  accuracy                    1.0000000          :
          :  -> integral cutoff          0.2500000E+02      :
          :  -> integral neglect         0.1000000E-07      :
          :  -> SCF convergence          0.1000000E-05 Eh   :
          :  -> wf. convergence          0.1000000E-03 e    :
          :  Broyden damping             0.4000000          :
          :  net charge                          0          :
          :  unpaired electrons                  1          :
          ...................................................

 iter      E             dE          RMSdq      gap      omega  full diag
   1    -27.0756740 -0.270757E+02  0.109E-08    3.54       0.0  T
   2    -27.0756740 -0.355271E-13  0.656E-09    3.54  100000.0  T
   3    -27.0756740  0.142109E-13  0.250E-09    3.54  100000.0  T

   *** convergence criteria satisfied after 3 iterations ***

         #    Occupation            Energy/Eh            Energy/eV
      -------------------------------------------------------------
         1        2.0000           -0.7094922             -19.3063
       ...           ...                  ...                  ...
        17        2.0000           -0.5055726             -13.7573
        18        2.0000           -0.5002471             -13.6124
        19        2.0000           -0.4428094             -12.0495
        20        2.0000           -0.4262340             -11.5984
        21        2.0000           -0.4126346             -11.2284
        22        2.0000           -0.4026545             -10.9568
        23        2.0000           -0.3591014              -9.7716 (HOMO)
        24                         -0.2289965              -6.2313 (LUMO)
        25                         -0.2164204              -5.8891
        26                         -0.0117222              -0.3190
        27                          0.0165229               0.4496
        28                          0.0398094               1.0833
       ...                                ...                  ...
        39                          0.6384065              17.3719
      -------------------------------------------------------------
                  HL-Gap            0.1301050 Eh            3.5403 eV
             Fermi-level           -0.2940489 Eh           -8.0015 eV

 SCC (total)                   0 d,  0 h,  0 min,  0.003 sec
 SCC setup                      ...        0 min,  0.000 sec (  3.704%)
 Dispersion                     ...        0 min,  0.000 sec (  1.362%)
 classical contributions        ...        0 min,  0.000 sec (  0.339%)
 integral evaluation            ...        0 min,  0.000 sec ( 14.704%)
 iterations                     ...        0 min,  0.001 sec ( 37.368%)
 molecular gradient             ...        0 min,  0.001 sec ( 37.030%)
 printout                       ...        0 min,  0.000 sec (  4.757%)

         :::::::::::::::::::::::::::::::::::::::::::::::::::::
         ::                     SUMMARY                     ::
         :::::::::::::::::::::::::::::::::::::::::::::::::::::
         :: total energy             -26.818317936106 Eh    ::
         :: gradient norm              0.000014482910 Eh/a0 ::
         :: HOMO-LUMO gap              3.540336725791 eV    ::
         ::.................................................::
         :: SCC energy               -27.075636675726 Eh    ::
         :: -> isotropic ES            0.066666228676 Eh    ::
         :: -> anisotropic ES          0.000062007641 Eh    ::
         :: -> anisotropic XC          0.009692191787 Eh    ::
         :: -> dispersion             -0.009796542190 Eh    ::
         :: repulsion energy           0.257318739620 Eh    ::
         :: add. restraining           0.000000000000 Eh    ::
         :: total charge              -0.000000000000 e     ::
         :::::::::::::::::::::::::::::::::::::::::::::::::::::

           ------------------------------------------------- 
          |                Numerical Hessian                |
           ------------------------------------------------- 
step length          :   0.00500
SCC accuracy         :   0.30000
Hessian scale factor :   1.00000
frozen atoms in %    :   0.00000    0
RMS gradient         :   0.00001
estimated CPU  time      0.04 min
estimated wall time      0.01 min

writing file <hessian>.

 projected vibrational frequencies (cm⁻¹)
eigval :       -0.00    -0.00    -0.00     0.00     0.00     0.00
eigval :       31.52    55.95   149.26   189.49   235.90   244.66
eigval :      271.49   369.48   478.62   498.60   586.77   601.63
eigval :      622.34   669.75   683.48   891.35   943.38   952.91
eigval :     1062.28  1102.30  1135.93  1181.22  1207.02  1214.47
eigval :     1247.88  1269.36  1320.82  1351.78  1405.76  1442.96
eigval :     1530.56  1779.90  2793.61  2830.85  3408.78  3415.66
eigval :     3440.98  3444.36  3527.40
           -------------------------------------------------
          |                Property Printout                |
           -------------------------------------------------

    * Orbital Energies and Occupations

         #    Occupation            Energy/Eh            Energy/eV
      -------------------------------------------------------------
         1        2.0000           -0.7094922             -19.3063
       ...           ...                  ...                  ...
        11        2.0000           -0.5621191             -15.2960
        12        2.0000           -0.5546589             -15.0930
        13        2.0000           -0.5363529             -14.5949
        14        2.0000           -0.5300918             -14.4245
        15        2.0000           -0.5263864             -14.3237
        16        2.0000           -0.5164296             -14.0528
        17        2.0000           -0.5055726             -13.7573
        18        2.0000           -0.5002471             -13.6124
        19        2.0000           -0.4428094             -12.0495
        20        2.0000           -0.4262340             -11.5984
        21        2.0000           -0.4126346             -11.2284
        22        2.0000           -0.4026545             -10.9568
        23        2.0000           -0.3591015              -9.7716 (HOMO)
        24                         -0.2289965              -6.2313 (LUMO)
        25                         -0.2164204              -5.8891
        26                         -0.0117222              -0.3190
        27                          0.0165229               0.4496
        28                          0.0398094               1.0833
        29                          0.0683420               1.8597
        30                          0.0904104               2.4602
        31                          0.1191084               3.2411
        32                          0.1415557               3.8519
        33                          0.1848753               5.0307
        34                          0.2025350               5.5113
       ...                                ...                  ...
        39                          0.6384065              17.3719
      -------------------------------------------------------------
                  HL-Gap            0.1301050 Eh            3.5403 eV
             Fermi-level           -0.2940490 Eh           -8.0015 eV

     #   Z          covCN         q      C6AA      α(0)
     1   8 O        1.663    -0.372    20.315     6.085
     2   1 H        0.860     0.181     1.207     1.721
     3   1 H        0.860     0.161     1.331     1.808
     4   6 C        1.767    -0.052    32.670     9.241
     5   7 N        2.692    -0.127    23.760     7.239
     6   1 H        0.805     0.301     0.717     1.330
     7   6 C        3.654     0.178    18.033     6.097
     8   7 N        2.640    -0.357    29.191     8.024
     9   1 H        0.923     0.047     2.364     2.405
    10   8 O        0.858    -0.397    21.625     6.235
    11   1 H        0.860     0.159     1.341     1.814
    12   1 H        0.860     0.198     1.117     1.655
    13   6 C        2.693     0.258    22.654     7.790
    14   7 N        2.690    -0.192    25.164     7.450
    15   1 H        0.922     0.015     2.809     2.621

 Mol. C6AA /au·bohr⁶  :       2263.740363
 Mol. C8AA /au·bohr⁸  :      48952.428640
 Mol. α(0) /au        :         71.514700


Wiberg/Mayer (AO) data.
largest (>0.10) Wiberg bond orders for each atom

 ---------------------------------------------------------------------------
     #   Z sym  total        # sym  WBO       # sym  WBO       # sym  WBO
 ---------------------------------------------------------------------------
     1   8 O    2.216 --     4 C    1.213     6 H    0.894
     2   1 H    0.967 --     5 N    0.938
     3   1 H    0.973 --     8 N    0.958
     4   6 C    2.777 --     5 N    1.481     1 O    1.213
     5   7 N    3.527 --     4 C    1.481     7 C    0.954     2 H    0.938
     6   1 H    0.909 --     1 O    0.894
     7   6 C    3.967 --     8 N    1.016    14 N    0.985     5 N    0.954
                             9 H    0.941
     8   7 N    3.011 --     7 C    1.016     3 H    0.958    11 H    0.957
     9   1 H    0.998 --     7 C    0.941
    10   8 O    2.040 --    13 C    1.747    14 N    0.206
    11   1 H    0.975 --     8 N    0.957
    12   1 H    0.961 --    14 N    0.925
    13   6 C    3.949 --    10 O    1.747    14 N    1.252    15 H    0.920
    14   7 N    3.442 --    13 C    1.252     7 C    0.985    12 H    0.925
                            10 O    0.206
    15   1 H    1.000 --    13 C    0.920
 ---------------------------------------------------------------------------

Topologies differ in total number of bonds
Writing topology from bond orders to xtbtopo.mol

molecular dipole:
                 x           y           z       tot (Debye)
 q only:       -0.182      -0.681       1.492
   full:        0.004      -1.227       1.368       4.671
molecular quadrupole (traceless):
                xx          xy          yy          xz          yz          zz
 q only:        2.467     -10.414      -2.454      23.116       9.865      -0.013
  q+dip:        5.696     -15.642      -2.812      25.343       9.767      -2.884
   full:        5.849     -16.076      -3.075      25.355       9.006      -2.774

           -------------------------------------------------
          |                Geometry Summary                 |
           -------------------------------------------------

      molecular mass/u    :      117.1067124
   center of mass at/Å    :        3.9967048       1.1637283       0.3536414
  moments of inertia/u·Å² :        0.1935792E+03   0.3366094E+03   0.4790439E+03
rotational constants/cm⁻¹ :        0.8708388E-01   0.5008069E-01   0.3519016E-01

 * 12 selected distances

     #   Z          #   Z                                           value/Å
     2   1 H        5   7 N                                       1.0097742
     4   6 C        5   7 N                                       1.3211592
     1   8 O        6   1 H                                       0.9645854 (min)
     5   7 N        7   6 C                                       1.4586706 (max)
     3   1 H        8   7 N                                       1.0132340
     7   6 C        8   7 N                                       1.4443649
     7   6 C        9   1 H                                       1.1044969
     8   7 N       11   1 H                                       1.0132133
    10   8 O       13   6 C                                       1.2028534
     7   6 C       14   7 N                                       1.4385817
    12   1 H       14   7 N                                       1.0120054
    13   6 C       14   7 N                                       1.3478336

 * 5 distinct bonds (by element types)

   Z      Z             #   av. dist./Å        max./Å        min./Å
   1 H    6 C           1     1.1044969     1.1044969     1.1044969
   1 H    7 N           4     1.0120567     1.0132340     1.0097742
   6 C    7 N           5     1.4021220     1.4586706     1.3211592
   1 H    8 O           1     0.9645854     0.9645854     0.9645854
   6 C    8 O           1     1.2028534     1.2028534     1.2028534

           -------------------------------------------------
          |               Frequency Printout                |
           -------------------------------------------------
 projected vibrational frequencies (cm⁻¹)
eigval :       -0.00    -0.00    -0.00     0.00     0.00     0.00
eigval :       31.52    55.95   149.26   189.49   235.90   244.66
eigval :      271.49   369.48   478.62   498.60   586.77   601.63
eigval :      622.34   669.75   683.48   891.35   943.38   952.91
eigval :     1062.28  1102.30  1135.93  1181.22  1207.02  1214.47
eigval :     1247.88  1269.36  1320.82  1351.78  1405.76  1442.96
eigval :     1530.56  1779.90  2793.61  2830.85  3408.78  3415.66
eigval :     3440.98  3444.36  3527.40
 reduced masses (amu)
   1: 12.76   2: 13.28   3: 12.96   4: 13.54   5: 13.19   6: 13.35   7: 13.69   8: 11.32
   9:  8.77  10: 12.40  11:  7.14  12:  7.01  13: 12.47  14: 11.46  15: 12.34  16: 11.83
  17:  4.95  18:  9.57  19:  4.72  20:  2.69  21: 11.69  22:  5.60  23:  6.98  24:  5.21
  25: 10.45  26:  9.63  27:  7.51  28:  6.78  29:  4.48  30:  5.71  31:  6.66  32:  6.79
  33:  4.40  34:  4.27  35:  7.16  36: 10.58  37:  2.25  38: 13.22  39:  1.68  40:  1.70
  41:  1.52  42:  1.82  43:  2.04  44:  1.88  45:  1.86
 IR intensities (km·mol⁻¹)
   1:  0.94   2:  0.74   3:  0.17   4:  1.66   5:  0.87   6:  1.33   7:  2.20   8:  0.79
   9:  2.61  10:  1.70  11: 25.86  12: 25.58  13:  6.78  14:  4.59  15:  8.24  16: 11.22
  17: 67.98  18:  8.78  19:127.84  20:194.05  21: 66.67  22:128.89  23: 10.27  24:  6.14
  25: 32.11  26: 44.56  27: 54.03  28:149.62  29:153.97  30: 34.96  31: 61.57  32:117.36
  33: 18.78  34: 63.94  35: 81.10  36:132.15  37: 48.29  38:706.58  39:102.14  40: 58.29
  41:  1.66  42:  6.84  43:  3.20  44: 11.74  45: 34.97
 Raman intensities (Ä⁴*amu⁻¹)
   1:  0.00   2:  0.00   3:  0.00   4:  0.00   5:  0.00   6:  0.00   7:  0.00   8:  0.00
   9:  0.00  10:  0.00  11:  0.00  12:  0.00  13:  0.00  14:  0.00  15:  0.00  16:  0.00
  17:  0.00  18:  0.00  19:  0.00  20:  0.00  21:  0.00  22:  0.00  23:  0.00  24:  0.00
  25:  0.00  26:  0.00  27:  0.00  28:  0.00  29:  0.00  30:  0.00  31:  0.00  32:  0.00
  33:  0.00  34:  0.00  35:  0.00  36:  0.00  37:  0.00  38:  0.00  39:  0.00  40:  0.00
  41:  0.00  42:  0.00  43:  0.00  44:  0.00  45:  0.00
 output can be read by thermo (or use thermo option).
 writing <g98.out> molden fake output.
 recommended (thermochemical) frequency scaling factor: 1.0
           -------------------------------------------------
          |             Thermodynamic Functions             |
           -------------------------------------------------

Refinement of some symmetry elements was terminated before convergence was reached.
Some symmetry elements may remain unidentified.
Molecule has no symmetry elements
It seems to be the C1 point group
c1  symmetry found (for desy threshold:  0.10E+00) used in thermo

          ...................................................
          :                      SETUP                      :
          :.................................................:
          :  # frequencies                          39      :
          :  # imaginary freq.                       0      :
          :  linear?                             false      :
          :  only rotor calc.                    false      :
          :  symmetry                               c1      :
          :  rotational number                       1      :
          :  scaling factor                  1.0000000      :
          :  rotor cutoff                   50.0000000 cm⁻¹ :
          :  imag. cutoff                  -20.0000000 cm⁻¹ :
          :.................................................:

    mode    ω/cm⁻¹     T·S(HO)/kcal·mol⁻¹    T·S(FR)/kcal·mol⁻¹   T·S(vib)
   ------------------------------------------------------------------------
       1     31.52    -1.70882 ( 13.64%)    -1.19277 ( 86.36%)    -1.26315
       2     55.95    -1.37000 ( 61.07%)    -1.02295 ( 38.93%)    -1.23488
       3    149.26    -0.79952 ( 98.76%)    -0.73245 (  1.24%)    -0.79868
       4    189.49    -0.66571 ( 99.52%)    -0.66179 (  0.48%)    -0.66569
       5    235.90    -0.54667 ( 99.80%)    -0.59690 (  0.20%)    -0.54678
       6    244.66    -0.52734 ( 99.83%)    -0.58610 (  0.17%)    -0.52744
       7    271.49    -0.47307 ( 99.89%)    -0.55528 (  0.11%)    -0.47317
   ------------------------------------------------------------------------

   temp. (K)  partition function   enthalpy   heat capacity  entropy
                                   cal/mol     cal/K/mol   cal/K/mol   J/K/mol
 298.15  VIB   569.                 3914.421     24.388     23.787
         ROT  0.427E+06              888.752      2.981     28.744
         INT  0.243E+09             4803.174     27.369     52.531
         TR   0.123E+28             1481.254      4.968     40.170
         TOT                        6284.4275    32.3368    92.7012   387.8619

       T/K    H(0)-H(T)+PV         H(T)/Eh          T*S/Eh         G(T)/Eh
   ------------------------------------------------------------------------
    298.15    0.100149E-01    0.122990E+00    0.440453E-01    0.789449E-01
   ------------------------------------------------------------------------

         :::::::::::::::::::::::::::::::::::::::::::::::::::::
         ::                  THERMODYNAMIC                  ::
         :::::::::::::::::::::::::::::::::::::::::::::::::::::
         :: total free energy         -26.739373043025 Eh   ::
         ::.................................................::
         :: total energy              -26.818317936106 Eh   ::
         :: zero point energy           0.112975363589 Eh   ::
         :: G(RRHO) w/o ZPVE           -0.034030470507 Eh   ::
         :: G(RRHO) contrib.            0.078944893081 Eh   ::
         :::::::::::::::::::::::::::::::::::::::::::::::::::::

optimized geometry written to: xtbopt.xyz


           -------------------------------------------------
          | TOTAL ENERGY              -26.818317936106 Eh   |
          | TOTAL ENTHALPY            -26.695327699833 Eh   |
          | TOTAL FREE ENERGY         -26.739373043025 Eh   |
          | GRADIENT NORM               0.000014484486 Eh/α |
          | HOMO-LUMO GAP               3.540336885718 eV   |
           -------------------------------------------------

------------------------------------------------------------------------
 * finished run on 2025/01/10 at 14:26:37.413     
------------------------------------------------------------------------
 total:
 * wall-time:     0 d,  0 h,  0 min,  0.166 sec
 *  cpu-time:     0 d,  0 h,  0 min,  1.298 sec
 * ratio c/w:     7.797 speedup
 SCF:
 * wall-time:     0 d,  0 h,  0 min,  0.010 sec
 *  cpu-time:     0 d,  0 h,  0 min,  0.076 sec
 * ratio c/w:     7.525 speedup
 ANC optimizer:
 * wall-time:     0 d,  0 h,  0 min,  0.012 sec
 *  cpu-time:     0 d,  0 h,  0 min,  0.095 sec
 * ratio c/w:     7.993 speedup
 analytical hessian:
 * wall-time:     0 d,  0 h,  0 min,  0.128 sec
 *  cpu-time:     0 d,  0 h,  0 min,  1.028 sec
 * ratio c/w:     7.999 speedup

normal termination of xtb
